<?xml version="1.0"?>
<VTKFile type="UnstructuredGrid"  version="0.1"  >
<UnstructuredGrid>
<Piece  NumberOfPoints="32792" NumberOfCells="64778">
<Points>
<DataArray  type="Float64"  NumberOfComponents="3"  format="ascii">1.193431345515801 -0.5357568053111265 0  1.222720667397146 -0.6064674834297812 0  1.293431345515801 -0.6357568053111264 0  1.364142023634456 -0.6064674834297812 0  1.393431345515801 -0.5357568053111265 0  1.364142023634456 -0.4650461271924717 0  1.293431345515801 -0.4357568053111265 0  1.222720667397146 -0.4650461271924717 0  0.435756805311126 -1.293431345515801 0  0.4650461271924712 -1.364142023634456 0  0.535756805311126 -1.393431345515801 0  0.6064674834297807 -1.364142023634456 0  0.635756805311126 -1.293431345515801 0  0.6064674834297807 -1.222720667397146 0  0.535756805311126 -1.193431345515801 0  0.4650461271924713 -1.222720667397146 0  -0.6357568053111264 -1.293431345515801 0  -0.6064674834297812 -1.364142023634456 0  -0.5357568053111265 -1.393431345515801 0  -0.4650461271924717 -1.364142023634456 0  -0.4357568053111265 -1.293431345515801 0  -0.4650461271924717 -1.222720667397146 0  -0.5357568053111265 -1.193431345515801 0  -0.6064674834297812 -1.222720667397146 0  -1.393431345515802 -0.5357568053111255 0  -1.364142023634456 -0.6064674834297802 0  -1.293431345515802 -0.6357568053111254 0  -1.222720667397147 -0.6064674834297802 0  -1.193431345515801 -0.5357568053111255 0  -1.222720667397147 -0.4650461271924707 0  -1.293431345515802 -0.4357568053111255 0  -1.364142023634456 -0.4650461271924707 0  -1.393431345515801 0.5357568053111258 0  -1.364142023634456 0.4650461271924711 0  -1.293431345515801 0.4357568053111258 0  -1.222720667397146 0.465046127192471 0  -1.193431345515801 0.5357568053111258 0  -1.222720667397146 0.6064674834297805 0  -1.293431345515801 0.6357568053111258 0  -1.364142023634456 0.6064674834297805 0  -0.6357568053111256 1.293431345515801 0  -0.6064674834297803 1.222720667397146 0  -0.5357568053111256 1.193431345515801 0  -0.4650461271924708 1.222720667397146 0  -0.4357568053111256 1.293431345515801 0  -0.4650461271924708 1.364142023634456 0  -0.5357568053111256 1.393431345515801 0  -0.6064674834297803 1.364142023634456 0  0.4357568053111257 1.293431345515801 0  0.4650461271924709 1.222720667397146 0  0.5357568053111257 1.193431345515801 0  0.6064674834297804 1.222720667397146 0  0.6357568053111257 1.293431345515801 0  0.6064674834297804 1.364142023634456 0  0.5357568053111257 1.393431345515801 0  0.465046127192471 1.364142023634456 0  1.193431345515801 0.5357568053111257 0  1.222720667397146 0.465046127192471 0  1.293431345515801 0.4357568053111257 0  1.364142023634456 0.4650461271924709 0  1.393431345515801 0.5357568053111257 0  1.364142023634456 0.6064674834297804 0  1.293431345515801 0.6357568053111257 0  1.222720667397146 0.6064674834297804 0  0.4656854249492379 -0.5656854249492381 0  0.4949747468305831 -0.6363961030678928 0  0.5656854249492379 -0.6656854249492381 0  0.6363961030678926 -0.6363961030678928 0  0.6656854249492379 -0.5656854249492381 0  0.6363961030678926 -0.4949747468305834 0  0.5656854249492379 -0.4656854249492381 0  0.4949747468305832 -0.4949747468305833 0  -0.1000000000000002 -0.8 0  -0.07071067811865492 -0.8707106781186548 0  -1.653273178848927e-16 -0.9 0  0.07071067811865459 -0.8707106781186548 0  0.09999999999999985 -0.8 0  0.07071067811865461 -0.7292893218813453 0  -1.408343819019456e-16 -0.7000000000000001 0  -0.0707106781186549 -0.7292893218813453 0  -0.6656854249492381 -0.565685424949238 0  -0.6363961030678928 -0.6363961030678927 0  -0.5656854249492381 -0.665685424949238 0  -0.4949747468305834 -0.6363961030678927 0  -0.4656854249492381 -0.565685424949238 0  -0.4949747468305833 -0.4949747468305833 0  -0.5656854249492381 -0.465685424949238 0  -0.6363961030678928 -0.4949747468305832 0  -0.9 1.102182119232618e-16 0  -0.8707106781186548 -0.07071067811865465 0  -0.8 -0.09999999999999991 0  -0.7292893218813453 -0.07071067811865467 0  -0.7000000000000001 9.797174393178826e-17 0  -0.7292893218813453 0.07071067811865485 0  -0.8 0.1000000000000001 0  -0.8707106781186548 0.07071067811865486 0  -0.665685424949238 0.5656854249492381 0  -0.6363961030678927 0.4949747468305834 0  -0.565685424949238 0.4656854249492381 0  -0.4949747468305833 0.4949747468305833 0  -0.465685424949238 0.5656854249492381 0  -0.4949747468305832 0.6363961030678928 0  -0.565685424949238 0.6656854249492381 0  -0.6363961030678927 0.6363961030678928 0  -0.09999999999999995 0.8 0  -0.07071067811865471 0.7292893218813453 0  3.061616997868384e-17 0.7000000000000001 0  0.07071067811865479 0.7292893218813453 0  0.1000000000000001 0.8 0  0.07071067811865482 0.8707106781186548 0  5.51091059616309e-17 0.9 0  -0.0707106781186547 0.8707106781186548 0  0.4656854249492381 0.565685424949238 0  0.4949747468305833 0.4949747468305833 0  0.5656854249492381 0.465685424949238 0  0.6363961030678928 0.4949747468305832 0  0.6656854249492381 0.565685424949238 0  0.6363961030678928 0.6363961030678927 0  0.5656854249492381 0.665685424949238 0  0.4949747468305834 0.6363961030678927 0  0.7000000000000001 1.224646799147353e-17 0  0.7292893218813453 -0.07071067811865475 0  0.8 -0.1 0  0.8707106781186548 -0.07071067811865477 0  0.9 0 0  0.8707106781186548 0.07071067811865475 0  0.8 0.1 0  0.7292893218813453 0.07071067811865477 0  -1.199370682854618 0.03885826950402724 0  -1.199370682854618 -0.03885826950402641 0  -1.194340105399937 -0.1164118234255776 0  -1.184300050480669 -0.1934771057037117 0  -1.169292629576311 -0.2697308777624757 0  -1.149380789025584 -0.3448533047817937 0  -1.124648046007612 -0.4185292971958582 0  -1.095198138241848 -0.4904498322882673 0  -1.061154588876028 -0.5603132503406887 0  -1.022660188387163 -0.6278265198985555 0  -0.9798763956686531 -0.6927064668468234 0  -0.9329826608155793 -0.7546809621406131 0  -0.8821756724486408 -0.8134900632090035 0  -0.827668532733725 -0.8688871042445058 0  -0.7696898635573678 -0.9206397308051834 0  -0.7084828476071071 -0.9685308743899312 0  -0.6443042083787804 -1.012359662899206 0  -0.5774231333889668 -1.051942263162417 0  -0.5081201451089881 -1.087112651998136 0  -0.4366859243561848 -1.117723312573011 0  -0.3634200910775407 -1.143645853138633 0  -0.2886299476395041 -1.164771545551151 0  -0.2126291898950681 -1.181011781314889 0  -0.1357365914343408 -1.192298443237173 0  -0.05827466653733757 -1.198584191135509 0  0.01943168256300105 -1.199842660398759 0  0.09705652843368531 -1.196068572569483 0  0.1742742854945876 -1.187277757483627 0  0.2507610756375294 -1.173507086874685 0  0.3261960866836108 -1.154814319720836 0  0.4002629179809841 -1.131277859983721 0  0.472650907499145 -1.102996427754974 0  0.543056434853446 -1.070088645189857 0  0.611184194794515 -1.032692538964711 0  0.6767484358210873 -0.9909649613451081 0  0.7394741587211131 -0.9450809322929449 0  0.7990982700140177 -0.8952329053718948 0  0.8553706854561948 -0.8416299605302793 0  0.908055378981234 -0.7844969271471034 0  0.9569313726752646 -0.7240734410195099 0  1.001793663635125 -0.6606129392469645 0  1.042454083821782 -0.5943815972279844 0  1.078742089302474 -0.5256572122280191 0  1.110505475571245 -0.4547280382011684 0  1.137611015947524 -0.381891576752933 0  1.159945020375133 -0.3074533293150872 0  1.177413812277887 -0.2317255157665048 0  1.18994412147171 -0.155025764874488 0  1.197483391485254 -0.0776757820493232 0  1.2 0 0  1.197483391485254 0.07767578204932289 0  1.18994412147171 0.1550257648744877 0  1.177413812277887 0.2317255157665055 0  1.159945020375133 0.3074533293150868 0  1.137611015947525 0.3818915767529326 0  1.110505475571245 0.454728038201168 0  1.078742089302474 0.5256572122280188 0  1.042454083821781 0.5943815972279851 0  1.001793663635125 0.6606129392469643 0  0.956931372675265 0.7240734410195094 0  0.9080553789812342 0.784496927147103 0  0.8553706854561952 0.8416299605302788 0  0.7990982700140171 0.8952329053718953 0  0.7394741587211127 0.9450809322929452 0  0.6767484358210879 0.9909649613451077 0  0.6111841947945156 1.03269253896471 0  0.5430564348534466 1.070088645189857 0  0.4726509074991445 1.102996427754975 0  0.4002629179809848 1.131277859983721 0  0.3261960866836116 1.154814319720836 0  0.25076107563753 1.173507086874685 0  0.1742742854945885 1.187277757483627 0  0.09705652843368508 1.196068572569483 0  0.01943168256300188 1.199842660398759 0  -0.05827466653733781 1.198584191135509 0  -0.1357365914343414 1.192298443237173 0  -0.212629189895067 1.181011781314889 0  -0.2886299476395043 1.164771545551151 0  -0.3634200910775409 1.143645853138633 0  -0.4366859243561848 1.117723312573011 0  -0.5081201451089883 1.087112651998136 0  -0.5774231333889661 1.051942263162417 0  -0.6443042083787806 1.012359662899205 0  -0.7084828476071072 0.968530874389931 0  -0.7696898635573676 0.9206397308051835 0  -0.8276685327337251 0.8688871042445057 0  -0.8821756724486406 0.8134900632090036 0  -0.9329826608155789 0.7546809621406135 0  -0.9798763956686528 0.6927064668468236 0  -1.022660188387163 0.6278265198985563 0  -1.061154588876028 0.5603132503406889 0  -1.095198138241848 0.4904498322882672 0  -1.124648046007612 0.418529297195859 0  -1.149380789025584 0.344853304781794 0  -1.169292629576311 0.2697308777624755 0  -1.184300050480669 0.193477105703712 0  -1.194340105399937 0.1164118234255773 0  -0.9969173337331281 -0.07845909572784437 0  -1 1.224646799147353e-16 0  -0.996917333733128 0.07845909572784507 0  -0.9876883405951377 0.156434465040231 0  -0.9723699203976766 0.2334453638559055 0  -0.9510565162951535 0.3090169943749475 0  -0.9238795325112867 0.3826834323650899 0  -0.8910065241883678 0.4539904997395469 0  -0.8526401643540922 0.5224985647159489 0  -0.8090169943749473 0.5877852522924732 0  -0.7604059656000309 0.6494480483301838 0  -0.7071067811865475 0.7071067811865476 0  -0.6494480483301835 0.760405965600031 0  -0.587785252292473 0.8090169943749475 0  -0.5224985647159488 0.8526401643540923 0  -0.4539904997395467 0.8910065241883679 0  -0.3826834323650897 0.9238795325112867 0  -0.3090169943749473 
[...]
<PointData  Scalars="f_2078"> 
<DataArray  type="Float64"  Name="f_2078"  format="ascii">-1.5569692697148825e-09  -2.7782477084630053e-09  -4.0537011491920523e-09  -4.9139475684185247e-09  -4.9223063976141855e-09  -3.9663404350732131e-09  -2.6086503962060714e-09  -1.4055754845079440e-09  -2.6197076846895899e-09  -3.9278093782870533e-09  -4.8951004180556925e-09  -4.8036249174703911e-09  -3.9641277403087132e-09  -2.6288426772551427e-09  -1.5622099899795935e-09  -1.4120532659019566e-09  -4.0084027460336346e-09  -4.8209309078382172e-09  -4.9252480336185887e-09  -3.9883958647871682e-09  -2.6340445308404596e-09  -1.4564367053798716e-09  -1.4810831467018615e-09  -2.6522771958953166e-09  -4.7947159057359869e-09  -4.8261808179627996e-09  -4.1182516031862559e-09  -2.6599253233283280e-09  -1.5032563589895047e-09  -1.5778573472133519e-09  -2.6565877741312593e-09  -4.1682793313712873e-09  -4.7410551984412322e-09  -4.0802746392060042e-09  -2.6614648632820349e-09  -1.5063965282081818e-09  -1.5537707672559210e-09  -2.5824600139725602e-09  -3.9837303356054993e-09  -4.7394655119552279e-09  -3.9955370411600626e-09  -2.6341964601718127e-09  -1.4020636778812735e-09  -1.4791913728226339e-09  -2.5797889696167585e-09  -3.9705493825591862e-09  -4.7911644330396674e-09  -4.9113812276495675e-09  -2.6502997037690714e-09  -1.4843033332228870e-09  -1.4627375994265220e-09  -2.6542144584078222e-09  -4.0983536649081520e-09  -4.8095156310469058e-09  -4.8029083452607173e-09  -4.1531992725156940e-09  -1.4156896292637746e-09  -1.4094943037928346e-09  -2.6292589157213262e-09  -3.9923683720379339e-09  -4.8697204002217259e-09  -4.8739726612383669e-09  -4.0357036121110255e-09  -2.7571307931338143e-09  2.7136965316013112e-08  2.5530139273142879e-08  2.3738366058097167e-08  2.3084230264763041e-08  2.3673345566053944e-08  2.5470786186227785e-08  2.7252047342042422e-08  2.7745399946882163e-08  2.5607602081549830e-08  2.3844340852215532e-08  2.3040114635018175e-08  2.3741972060948639e-08  2.5599091594640653e-08  2.7232842921667848e-08  2.7752028009671791e-08  2.7192964492612904e-08  2.3791182877099999e-08  2.2941158533712304e-08  2.3678801140972086e-08  2.5393556354036984e-08  2.7259593902101434e-08  2.7795129504880890e-08  2.7307165158977288e-08  2.5484275655557861e-08  2.3046834263509625e-08  2.3781587622791243e-08  2.5574723075316323e-08  2.7190366522199026e-08  2.7825704558992331e-08  2.7200093138569828e-08  2.5540487733913003e-08  2.3739590992976828e-08  2.3666851509656278e-08  2.5534996431597938e-08  2.7095679505591184e-08  2.7852174836820942e-08  2.7108678055618491e-08  2.5446726930370747e-08  2.3763126296853029e-08  2.2972122708366416e-08  2.5480025240435432e-08  2.7229387456620790e-08  2.7726833595043349e-08  2.7193181832326078e-08  2.5635015542000130e-08  2.3804346984133095e-08  2.3029998827970876e-08  2.3685928640122811e-08  2.7167256138011555e-08  2.7869326426056488e-08  2.7082403943605771e-08  2.5533264232225027e-08  2.3689862883497293e-08  2.3120180525213058e-08  2.3654334277167608e-08  2.5612952572366977e-08  2.7775070918483304e-08  2.7155188017955217e-08  2.5490108394742146e-08  2.3826128056538614e-08  2.3039372902002138e-08  2.3728715784701366e-08  2.5557637659229699e-08  2.7213049072601589e-08  8.6248043870739662e-09  8.6285929676286672e-09  8.3088179839315088e-09  7.6774088943990123e-09  6.7763500018639097e-09  5.7709975871967538e-09  4.9648087092876149e-09  4.9210869467501706e-09  5.6514194747377239e-09  6.6515966672328392e-09  7.5594087225113561e-09  8.2348372090265737e-09  8.6022341058892299e-09  8.6520482366091072e-09  8.3666546900288230e-09  7.7710542615342500e-09  6.9025012694963572e-09  5.9049809393919011e-09  5.0264830511339554e-09  4.8563623912879811e-09  5.4988298506438473e-09  6.5131484658241780e-09  7.4618939961082610e-09  8.1617644742665848e-09  8.5726141162428108e-09  8.6596526592381437e-09  8.4187387891051283e-09  7.8467734170525546e-09  7.0112409785842085e-09  6.0036280748465279e-09  5.1067623280367039e-09  4.8245487790168518e-09  5.4280861226796248e-09  6.3768877225989155e-09  7.3539413216121436e-09  8.1044779148011557e-09  8.5466501177592399e-09  8.6621410542836139e-09  8.4525534162481181e-09  7.9345046111340898e-09  7.1218019200393897e-09  6.1394097351602842e-09  5.2146747152554079e-09  4.8376820256469967e-09  5.3149564422044300e-09  6.2617957757407575e-09  7.2423996508431456e-09  8.0132793807815058e-09  8.5053885656011306e-09  8.6759621500337355e-09  8.5137929183531057e-09  8.0256246289506362e-09  7.2506527773596423e-09  6.2737889367270973e-09  5.3124224535761041e-09  4.8158850158911666e-09  5.2129566641708045e-09  6.1361244731630352e-09  7.1389322217954930e-09  7.9561583965958783e-09  8.4653626617300223e-09  8.6622089127555739e-09  8.5405954092068034e-09  8.1009436811443843e-09  7.3549984385789525e-09  6.4023971481270531e-09  5.4204613443627225e-09  4.8323904456176288e-09  5.1013502126072173e-09  5.9922819964258499e-09  6.9992578878215835e-09  7.8382527242156727e-09  8.3978259374488247e-09  8.6550446376192939e-09  8.5722509402672857e-09  8.1712327718125060e-09  7.4753221664424465e-09  6.5237514969198966e-09  5.5157139300589049e-09  4.8792935759402958e-09  5.0522483491455060e-09  5.8950190299067393e-09  6.9014560568599079e-09  7.7659842936853642e-09  8.3565758542395269e-09  8.6377686904119362e-09  8.5908696040496732e-09  8.2225102584974979e-09  7.5621051916934711e-09  6.6534057892965703e-09  5.6344570550465382e-09  4.9268660782881240e-09  4.9842106887953691e-09  5.7448192717868585e-09  6.7770632096110251e-09  7.6751604094967753e-09  8.2953100226867952e-09  1.6336719625572149e-08  1.6665566700043752e-08  1.6343505576398971e-08  1.5610504059813897e-08  1.4814730712311956e-08  1.4207139108656280e-08  1.3990408243442235e-08  1.4213580234052817e-08  1.4811437126684911e-08  1.5600357516108274e-08  1.6350765397798399e-08  1.6675843440857435e-08  1.6341986350587030e-08  1.5604874322919899e-08  1.4804894876012408e-08  1.4211772334501523e-08  1.3990250446698239e-08  1.4215375913657625e-08  1.4812357847159855e-08  1.5613326874901718e-08  1.6361885830260922e-08  1.6669249294408246e-08  1.6343131053017733e-08  1.5597398057875655e-08  1.4799755715991489e-08  1.4207657875946950e-08  1.3989064457212929e-08  1.4209232920952763e-08  1.4813362099108263e-08  1.5604137808686220e-08  1.6365334888821313e-08  1.6682570738203047e-08  1.6338464134786132e-08  1.5604407338340286e-08  1.4809601735453425e-08  1.4208649816049416e-08  1.3994719382937642e-08  1.4208689559660385e-08  1.4811875960973186e-08  1.5603063045843777e-08  1.6365199759300291e-08  1.6682921484699737e-08  1.6333788177115616e-08  1.5598973762681639e-08  1.4804099789874825e-08  1.4208318100953540e-08  1.3987136934287376e-08  1.4209979378026048e-08  1.4819339091142349e-08  1.5619326660590203e-08  1.6366392023275243e-08  1.6641299263126612e-08  1.6336026416712003e-08  1.5598698858568519e-08  1.4810528156644731e-08  1.4204476715743465e-08  1.3984491704122299e-08  1.4205310232173896e-08  1.4813935056245418e-08  1.5611695699970571e-08  1.6365958382260694e-08  1.6664716408807564e-08  1.6341791103358455e-08  1.5614543658060245e-08  1.4803033675843369e-08  1.4210167339415672e-08  1.3991208032970309e-08  1.4210797513284940e-08  1.4815366485480810e-08  1.5605450098786707e-08  1.6366916588741026e-08  1.6637894612425466e-08  1.6338870167618827e-08  1.5609641182621922e-08  1.4813701846807000e-08  1.4213208446409086e-08  1.3994998230418561e-08  1.4210496060638876e-08  1.4810666288515478e-08  1.5606311211792784e-08  0.0000000000000000e+00  0.0000000000000000e+00  0.0000000000000000e+00  0.0000000000000000e+00  0.0000000000000000e+00  0.0000000000000000e+00  0.0000000000000000e+00  0.0000000000000000e+00  0.0000000000000000e+00  0.0000000000000000e+00  0.0000000000000000e+00  0.0000000000000000e+00  0.0000000000000000e+00  0.0000000000000000e+00  0.0000000000000000e+00  0.0000000000000000e+00  0.0000000000000000e+00  0.0000000000000000e+00  0.0000000000000000e+00  0.0000000000000000e+00  0.0000000000000000e+00  0.0000000000000000e+00  0.0000000000000000e+00  0.0000000000000000e+00  0.0000000000000000e+00  0.0000000000000000e+00  0.0000000000000000e+00  0.0000000000000000e+00  0.0000000000000000e+00  0.0000000000000000e+00  0.0000000000000000e+00  0.0000000000000000e+00  0.0000000000000000e+00  0.0000000000000000e+00  0.0000000000000000e+00  0.0000000000000000e+00  0.0000000000000000e+00  0.0000000000000000e+00  0.0000000000000000e+00  0.0000000000000000e+00  0.0000000000000000e+00  0.0000000000000000e+00  0.0000000000000000e+00  0.0000000000000000e+00  0.0000000000000000e+00  0.0000000000000000e+00  0.0000000000000000e+00  0.0000000000000000e+00  0.0000000000000000e+00  0.0000000000000000e+00  0.0000000000000000e+00  0.0000000000000000e+00  0.0000000000000000e+00  0.0000000000000000e+00  0.0000000000000000e+00  0.0000000000000000e+00  0.0000000000000000e+00  0.0000000000000000e+00  0.0000000000000000e+00  0.0000000000000000e+00  0.0000000000000000e+00  0.0000000000000000e+00  0.0000000000000000e+00  0.0000000000000000e+00  0.0000000000000000e+00  0.0000000000000000e+00  0.0000000000000000e+00  0.0000000000000000e+00  0.0000000000000000e+00  0.0000000000000000e+00  0.0000000000000000e+00  0.0000000000000000e+00  0.0000000000000000e+00  0.0000000000000000e+00  0.0000000000000000e+00  0.0000000000000000e+00  0.0000000000000000e+00  0.0000000000000000e+00  0.0000000000000000e+00  0.0000000000000000e+00  0.0000000000000000e+00  0.0000000000000000e+00  0.0000000000000000e+00  0.0000000000000000e+00  0.0000000000000000e+00  0.0000000000000000e+00  0.0000000000000000e+00  0.0000000000000000e+00  0.0000000000000000e+00  0.0000000000000000e+00  0.0000000000000000e+00  0.0000000000000000e+00  0.0000000000000000e+00  0.0000000000000000e+00  0.0000000000000000e+00  0.0000000000000000e+00  0.0000000000000000e+00  0.0000000000000000e+00  0.0000000000000000e+00  0.0000000000000000e+00  0.0000000000000000e+00  0.0000000000000000e+00  0.0000000000000000e+00  0.0000000000000000e+00  0.0000000000000000e+00  0.0000000000000000e+00  0.0000000000000000e+00  0.0000000000000000e+00  0.0000000000000000e+00  0.0000000000000000e+00  0.0000000000000000e+00  0.0000000000000000e+00  0.0000000000000000e+00  0.0000000000000000e+00  0.0000000000000000e+00  0.0000000000000000e+00  0.0000000000000000e+00  0.0000000000000000e+00  0.0000000000000000e+00  0.0000000000000000e+00  0.0000000000000000e+00  0.0000000000000000e+00  0.0000000000000000e+00  0.0000000000000000e+00  0.0000000000000000e+00  0.0000000000000000e+00  0.0000000000000000e+00  0.0000000000000000e+00  0.0000000000000000e+00  0.0000000000000000e+00  0.0000000000000000e+00  0.0000000000000000e+00  0.0000000000000000e+00  0.0000000000000000e+00  0.0000000000000000e+00  0.0000000000000000e+00  0.0000000000000000e+00  0.0000000000000000e+00  0.0000000000000000e+00  0.0000000000000000e+00  0.0000000000000000e+00  0.0000000000000000e+00  0.0000000000000000e+00  0.0000000000000000e+00  0.0000000000000000e+00  0.0000000000000000e+00  0.0000000000000000e+00  0.0000000000000000e+00  0.0000000000000000e+00  0.0000000000000000e+00  0.0000000000000000e+00  0.0000000000000000e+00  0.0000000000000000e+00  0.0000000000000000e+00  0.0000000000000000e+00  0.0000000000000000e+00  0.0000000000000000e+00  0.0000000000000000e+00  0.0000000000000000e+00  0.0000000000000000e+00  0.0000000000000000e+00  0.0000000000000000e+00  0.0000000000000000e+00  0.0000000000000000e+00  0.0000000000000000e+00  0.0000000000000000e+00  0.0000000000000000e+00  0.0000000000000000e+00  0.0000000000000000e+00  0.0000000000000000e+00  0.0000000000000000e+00  0.0000000000000000e+00  0.0000000000000000e+00  0.0000000000000000e+00  0.0000000000000000e+00  0.0000000000000000e+00  0.0000000000000000e+00  0.0000000000000000e+00  0.0000000000000000e+00  0.0000000000000000e+00  0.0000000000000000e+00  0.0000000000000000e+00  0.0000000000000000e+00  0.0000000000000000e+00  0.0000000000000000e+00  0.0000000000000000e+00  0.0000000000000000e+00  0.0000000000000000e+00  0.0000000000000000e+00  0.0000000000000000e+00  0.0000000000000000e+00  0.0000000000000000e+00  0.0000000000000000e+00  0.0000000000000000e+00  0.0000000000000000e+00  0.0000000000000000e+00  0.0000000000000000e+00  0.0000000000000000e+00  0.0000000000000000e+00  0.0000000000000000e+00  0.0000000000000000e+00  0.0000000000000000e+00  0.0000000000000000e+00  0.0000000000000000e+00  0.0000000000000000e+00  0.0000000000000000e+00  0.0000000000000000e+00  0.0000000000000000e+00  0.0000000000000000e+00  0.0000000000000000e+00  0.0000000000000000e+00  0.0000000000000000e+00  0.0000000000000000e+00  0.0000000000000000e+00  0.0000000000000000e+00  0.0000000000000000e+00  0.0000000000000000e+00  0.0000000000000000e+00  0.0000000000000000e+00  0.0000000000000000e+00  0.0000000000000000e+00  0.0000000000000000e+00  0.0000000000000000e+00  0.0000000000000000e+00  0.0000000000000000e+00  0.0000000000000000e+00  0.0000000000000000e+00  0.0000000000000000e+00  0.0000000000000000e+00  0.0000000000000000e+00  0.0000000000000000e+00  0.0000000000000000e+00  0.0000000000000000e+00  0.0000000000000000e+00  0.0000000000000000e+00  0.0000000000000000e+00  0.0000000000000000e+00  0.0000000000000000e+00  0.0000000000000000e+00  0.0000000000000000e+00  0.0000000000000000e+00  0.0000000000000000e+00  0.0000000000000000e+00  0.0000000000000000e+00  0.0000000000000000e+00  0.0000000000000000e+00  0.0000000000000000e+00  0.0000000000000000e+00  0.0000000000000000e+00  0.0000000000000000e+00  0.0000000000000000e+00  0.0000000000000000e+00  0.0000000000000000e+00  0.0000000000000000e+00  0.0000000000000000e+00  0.0000000000000000e+00  0.0000000000000000e+00  0.0000000000000000e+00  0.0000000000000000e+00  0.0000000000000000e+00  0.0000000000000000e+00  0.0000000000000000e+00  0.0000000000000000e+00  0.0000000000000000e+00  0.0000000000000000e+00  0.0000000000000000e+00  0.0000000000000000e+00  0.0000000000000000e+00  0.0000000000000000e+00  0.0000000000000000e+00  0.0000000000000000e+00  0.0000000000000000e+00  0.0000000000000000e+00  0.0000000000000000e+00  0.0000000000000000e+00  0.0000000000000000e+00  0.0000000000000000e+00  0.0000000000000000e+00  0.0000000000000000e+00  0.0000000000000000e+00  0.0000000000000000e+00  0.0000000000000000e+00  0.0000000000000000e+00  0.0000000000000000e+00  0.0000000000000000e+00  0.0000000000000000e+00  0.0000000000000000e+00  0.0000000000000000e+00  0.0000000000000000e+00  0.0000000000000000e+00  0.0000000000000000e+00  0.0000000000000000e+00  0.0000000000000000e+00  0.0000000000000000e+00  0.0000000000000000e+00  0.0000000000000000e+00  0.0000000000000000e+00  0.0000000000000000e+00  0.0000000000000000e+00  0.0000000000000000e+00  0.0000000000000000e+00  0.0000000000000000e+00  0.0000000000000000e+00  0.0000000000000000e+00  0.0000000000000000e+00  0.0000000000000000e+00  0.0000000000000000e+00  0.0000000000000000e+00  0.0000000000000000e+00  0.0000000000000000e+00  0.0000000000000000e+00  0.0000000000000000e+00  0.0000000000000000e+00  0.0000000000000000e+00  0.0000000000000000e+00  0.0000000000000000e+00  0.0000000000000000e+00  0.0000000000000000e+00  0.0000000000000000e+00  0.0000000000000000e+00  0.0000000000000000e+00  0.0000000000000000e+00  0.0000000000000000e+00  0.0000000000000000e+00  0.0000000000000000e+00  0.0000000000000000e+00  0.0000000000000000e+00  0.0000000000000000e+00  0.0000000000000000e+00  0.0000000000000000e+00  0.0000000000000000e+00  0.0000000000000000e+00  0.0000000000000000e+00  0.0000000000000000e+00  0.0000000000000000e+00  0.0000000000000000e+00  0.0000000000000000e+00  0.0000000000000000e+00  0.0000000000000000e+00  0.0000000000000000e+00  0.0000000000000000e+00  0.0000000000000000e+00  0.0000000000000000e+00  0.0000000000000000e+00  0.0000000000000000e+00  0.0000000000000000e+00  0.0000000000000000e+00  0.0000000000000000e+00  0.0000000000000000e+00  0.0000000000000000e+00  0.0000000000000000e+00  0.0000000000000000e+00  0.0000000000000000e+00  0.0000000000000000e+00  0.0000000000000000e+00  0.0000000000000000e+00  0.0000000000000000e+00  0.0000000000000000e+00  0.0000000000000000e+00  0.0000000000000000e+00  0.0000000000000000e+00  0.0000000000000000e+00  0.0000000000000000e+00  0.0000000000000000e+00  0.0000000000000000e+00  0.0000000000000000e+00  0.0000000000000000e+00  0.0000000000000000e+00  0.0000000000000000e+00  0.0000000000000000e+00  0.0000000000000000e+00  0.0000000000000000e+00  0.0000000000000000e+00  0.0000000000000000e+00  0.0000000000000000e+00  0.0000000000000000e+00  0.0000000000000000e+00  0.0000000000000000e+00  0.0000000000000000e+00  0.0000000000000000e+00  0.0000000000000000e+00  0.0000000000000000e+00  0.0000000000000000e+00  0.0000000000000000e+00  0.0000000000000000e+00  0.0000000000000000e+00  0.0000000000000000e+00  0.0000000000000000e+00  0.0000000000000000e+00  0.0000000000000000e+00  0.0000000000000000e+00  0.0000000000000000e+00  0.0000000000000000e+00  0.0000000000000000e+00  0.0000000000000000e+00  0.0000000000000000e+00  0.0000000000000000e+00  0.0000000000000000e+00  0.0000000000000000e+00  0.0000000000000000e+00  0.0000000000000000e+00  0.0000000000000000e+00  8.8925758822517544e-12  8.5992655233295845e-12  8.4527951236063001e-12  8.7951138619491036e-12  8.4419580081801149e-12  8.3840606322343585e-12  8.4204848314520116e-12  8.3605182494913512e-12  -3.0923764673970253e-12  -2.7681628057082690e-12  -2.8244674844748787e-12  -2.7888904174578767e-12  -2.9255049272598348e-12  -2.9509968374878476e-12  -3.1238823667790202e-12  -2.8574547272524294e-11  -1.0412100910840278e-12  -3.8630811575463422e-11  -4.7312804559255777e-11  -3.7713919352719531e-11  -3.6798165523410054e-11  -4.6964501975380410e-11  -3.7660033481127847e-11  -3.6503599607681251e-11  -2.1085021808067980e-13  3.5359999594910053e-13  5.9947506467657701e-13  4.0965140814717007e-13  5.1033859965800022e-13  6.4980430079798168e-13  6.4404231729047573e-13  4.6770160021556005e-13  4.3535816470986665e-13  4.0316346481051937e-13  3.9712878490600310e-13  5.2837760685172053e-13  5.5431539526240561e-13  3.5551470898334453e-13  3.4791806362534069e-13  1.2628705554594034e-10  1.1325782080289228e-10  1.4558404573015083e-10  1.1411717737917173e-10  1.1479595930576022e-10  1.1366124455738623e-10  1.1440545106549033e-10  1.0936605278041611e-10  8.9139909698778212e-13  -3.6727207393473772e-12  -5.8186800340199209e-13  -5.0866794812953707e-12  -4.5445332920234555e-12  -3.2292050567932463e-12  5.5792836083161830e-13  -5.0967177784148213e-13  -5.0816234156722906e-13  -4.8282945628550320e-13  -5.6757554599233876e-13  -5.5882816184048371e-13  -6.6917686682267977e-13  6.9418191183483619e-13  -5.6255885189505495e-13  -2.8799720164248276e-13  -2.6805538110113812e-12  2.5395484522458093e-08  -7.1351400181334171e-13  -2.6459763471597872e-12  -1.3875970878682482e-13  -5.7355112470173844e-13  -2.8755301959234169e-12  -1.9331462142718996e-12  -5.8870273979852325e-13  -4.5700329166232746e-13  -5.0511508045172917e-13  -5.7603967657536805e-13  -6.0671356106422073e-13  -1.5897168973440596e-12  -6.4540970764604410e-13  -6.7740763614078371e-13  -5.7171881892800290e-13  3.9831427412917156e-13  -1.2706359265766419e-10  7.8819436035240854e-12  1.7293223364100964e-11  -3.4874754004983016e-11  4.8703632144582702e-12  6.2142179089822720e-13  6.6013170358414068e-13  5.9428496605281011e-13  -4.7857628837910435e-14  1.2780563683748399e-12  6.9313957151584626e-13  6.1734607022135372e-13  6.0421893962536739e-13  1.2849880235342097e-12  2.3401945756255781e-12  2.2580453462141289e-11  1.7300897514692977e-12  -5.0682048884318664e-12  -2.5446408454148066e-12  2.1424659064790205e-12  2.1394399613366674e-12  2.0986851527376878e-12  2.2314192514922094e-12  2.1437989431113299e-12  -3.8018649492201167e-11  9.3900309627656621e-14  5.1624968511330107e-13  -2.1965985297852374e-10  -2.8659185121741838e-10  -2.1494158228035209e-10  -2.8990861360311871e-10  -9.1810443736727276e-12  -1.9614253049429799e-10  3.8948766492099243e-12  1.8000122530008308e-10  5.0529852146593226e-13  8.86933940195