<?xml version="1.0"?>
<VTKFile type="UnstructuredGrid"  version="0.1"  >
<UnstructuredGrid>
<Piece  NumberOfPoints="4225" NumberOfCells="8192">
<Points>
<DataArray  type="Float64"  NumberOfComponents="3"  format="ascii">-1 -1 0  -0.96875 -1 0  -0.9375 -1 0  -0.90625 -1 0  -0.875 -1 0  -0.84375 -1 0  -0.8125 -1 0  -0.78125 -1 0  -0.75 -1 0  -0.71875 -1 0  -0.6875 -1 0  -0.65625 -1 0  -0.625 -1 0  -0.59375 -1 0  -0.5625 -1 0  -0.53125 -1 0  -0.5 -1 0  -0.46875 -1 0  -0.4375 -1 0  -0.40625 -1 0  -0.375 -1 0  -0.34375 -1 0  -0.3125 -1 0  -0.28125 -1 0  -0.25 -1 0  -0.21875 -1 0  -0.1875 -1 0  -0.15625 -1 0  -0.125 -1 0  -0.09375 -1 0  -0.0625 -1 0  -0.03125 -1 0  0 -1 0  0.03125 -1 0  0.0625 -1 0  0.09375 -1 0  0.125 -1 0  0.15625 -1 0  0.1875 -1 0  0.21875 -1 0  0.25 -1 0  0.28125 -1 0  0.3125 -1 0  0.34375 -1 0  0.375 -1 0  0.40625 -1 0  0.4375 -1 0  0.46875 -1 0  0.5 -1 0  0.53125 -1 0  0.5625 -1 0  0.59375 -1 0  0.625 -1 0  0.65625 -1 0  0.6875 -1 0  0.71875 -1 0  0.75 -1 0  0.78125 -1 0  0.8125 -1 0  0.84375 -1 0  0.875 -1 0  0.90625 -1 0  0.9375 -1 0  0.96875 -1 0  1 -1 0  -1 -0.96875 0  -0.96875 -0.96875 0  -0.9375 -0.96875 0  -0.90625 -0.96875 0  -0.875 -0.96875 0  -0.84375 -0.96875 0  -0.8125 -0.96875 0  -0.78125 -0.96875 0  -0.75 -0.96875 0  -0.71875 -0.96875 0  -0.6875 -0.96875 0  -0.65625 -0.96875 0  -0.625 -0.96875 0  -0.59375 -0.96875 0  -0.5625 -0.96875 0  -0.53125 -0.96875 0  -0.5 -0.96875 0  -0.46875 -0.96875 0  -0.4375 -0.96875 0  -0.40625 -0.96875 0  -0.375 -0.96875 0  -0.34375 -0.96875 0  -0.3125 -0.96875 0  -0.28125 -0.96875 0  -0.25 -0.96875 0  -0.21875 -0.96875 0  -0.1875 -0.96875 0  -0.15625 -0.96875 0  -0.125 -0.96875 0  -0.09375 -0.96875 0  -0.0625 -0.96875 0  -0.03125 -0.96875 0  0 -0.96875 0  0.03125 -0.96875 0  0.0625 -0.96875 0  0.09375 -0.96875 0  0.125 -0.96875 0  0.15625 -0.96875 0  0.1875 -0.96875 0  0.21875 -0.96875 0  0.25 -0.96875 0  0.28125 -0.96875 0  0.3125 -0.96875 0  0.34375 -0.96875 0  0.375 -0.96875 0  0.40625 -0.96875 0  0.4375 -0.96875 0  0.46875 -0.96875 0  0.5 -0.96875 0  0.53125 -0.96875 0  0.5625 -0.96875 0  0.59375 -0.96875 0  0.625 -0.96875 0  0.65625 -0.96875 0  0.6875 -0.96875 0  0.71875 -0.96875 0  0.75 -0.96875 0  0.78125 -0.96875 0  0.8125 -0.96875 0  0.84375 -0.96875 0  0.875 -0.96875 0  0.90625 -0.96875 0  0.9375 -0.96875 0  0.96875 -0.96875 0  1 -0.96875 0  -1 -0.9375 0  -0.96875 -0.9375 0  -0.9375 -0.9375 0  -0.90625 -0.9375 0  -0.875 -0.9375 0  -0.84375 -0.9375 0  -0.8125 -0.9375 0  -0.78125 -0.9375 0  -0.75 -0.9375 0  -0.71875 -0.9375 0  -0.6875 -0.9375 0  -0.65625 -0.9375 0  -0.625 -0.9375 0  -0.59375 -0.9375 0  -0.5625 -0.9375 0  -0.53125 -0.9375 0  -0.5 -0.9375 0  -0.46875 -0.9375 0  -0.4375 -0.9375 0  -0.40625 -0.9375 0  -0.375 -0.9375 0  -0.34375 -0.9375 0  -0.3125 -0.9375 0  -0.28125 -0.9375 0  -0.25 -0.9375 0  -0.21875 -0.9375 0  -0.1875 -0.9375 0  -0.15625 -0.9375 0  -0.125 -0.9375 0  -0.09375 -0.9375 0  -0.0625 -0.9375 0  -0.03125 -0.9375 0  0 -0.9375 0  0.03125 -0.9375 0  0.0625 -0.9375 0  0.09375 -0.9375 0  0.125 -0.9375 0  0.15625 -0.9375 0  0.1875 -0.9375 0  0.21875 -0.9375 0  0.25 -0.9375 0  0.28125 -0.9375 0  0.3125 -0.9375 0  0.34375 -0.9375 0  0.375 -0.9375 0  0.40625 -0.9375 0  0.4375 -0.9375 0  0.46875 -0.9375 0  0.5 -0.9375 0  0.53125 -0.9375 0  0.5625 -0.9375 0  0.59375 -0.9375 0  0.625 -0.9375 0  0.65625 -0.9375 0  0.6875 -0.9375 0  0.71875 -0.9375 0  0.75 -0.9375 0  0.78125 -0.9375 0  0.8125 -0.9375 0  0.84375 -0.9375 0  0.875 -0.9375 0  0.90625 -0.9375 0  0.9375 -0.9375 0  0.96875 -0.9375 0  1 -0.9375 0  -1 -0.90625 0  -0.96875 -0.90625 0  -0.9375 -0.90625 0  -0.90625 -0.90625 0  -0.875 -0.90625 0  -0.84375 -0.90625 0  -0.8125 -0.90625 0  -0.78125 -0.90625 0  -0.75 -0.90625 0  -0.71875 -0.90625 0  -0.6875 -0.90625 0  -0.65625 -0.90625 0  -0.625 -0.90625 0  -0.59375 -0.90625 0  -0.5625 -0.90625 0  -0.53125 -0.90625 0  -0.5 -0.90625 0  -0.46875 -0.90625 0  -0.4375 -0.90625 0  -0.40625 -0.90625 0  -0.375 -0.90625 0  -0.34375 -0.90625 0  -0.3125 -0.90625 0  -0.28125 -0.90625 0  -0.25 -0.90625 0  -0.21875 -0.90625 0  -0.1875 -0.90625 0  -0.15625 -0.90625 0  -0.125 -0.90625 0  -0.09375 -0.90625 0  -0.0625 -0.90625 0  -0.03125 -0.90625 0  0 -0.90625 0  0.03125 -0.90625 0  0.0625 -0.90625 0  0.09375 -0.90625 0  0.125 -0.90625 0  0.15625 -0.90625 0  0.1875 -0.90625 0  0.21875 -0.90625 0  0.25 -0.90625 0  0.28125 -0.90625 0  0.3125 -0.90625 0  0.34375 -0.90625 0  0.375 -0.90625 0  0.40625 -0.90625 0  0.4375 -0.90625 0  0.46875 -0.90625 0  0.5 -0.90625 0  0.53125 -0.90625 0  0.5625 -0.90625 0  0.59375 -0.90625 0  0.625 -0.90625 0  0.65625 -0.90625 0  0.6875 -0.90625 0  0.71875 -0.90625 0  0.75 -0.90625 0  0.78125 -0.90625 0  0.8125 -0.90625 0  0.84375 -0.90625 0  0.875 -0.90625 0  0.90625 -0.90625 0  0.9375 -0.90625 0  0.96875 -0.90625 0  1 -0.90625 0  -1 -0.875 0  -0.96875 -0.875 0  -0.9375 -0.875 0  -0.90625 -0.875 0  -0.875 -0.875 0  -0.84375 -0.875 0  -0.8125 -0.875 0  -0.78125 -0.875 0  -0.75 -0.875 0  -0.71875 -0.875 0  -0.6875 -0.875 0  -0.65625 -0.875 0  -0.625 -0.875 0  -0.59375 -0.875 0  -0.5625 -0.875 0  -0.53125 -0.875 0  -0.5 -0.875 0  -0.46875 -0.875 0  -0.4375 -0.875 0  -0.40625 -0.875 0  -0.375 -0.875 0  -0.34375 -0.875 0  -0.3125 -0.875 0  -0.28125 -0.875 0  -0.25 -0.875 0  -0.21875 -0.875 0  -0.1875 -0.875 0  -0.15625 -0.875 0  -0.125 -0.875 0  -0.09375 -0.875 0  -0.0625 -0.875 0  -0.03125 -0.875 0  0 -0.875 0  0.03125 -0.875 0  0.0625 -0.875 0  0.09375 -0.875 0  0.125 -0.875 0  0.15625 -0.875 0  0.1875 -0.875 0  0.21875 -0.875 0  0.25 -0.875 0  0.28125 -0.875 0  0.3125 -0.875 0  0.34375 -0.875 0  0.375 -0.875 0  0.40625 -0.875 0  0.4375 -0.875 0  0.46875 -0.875 0  0.5 -0.875 0  0.53125 -0.875 0  0.5625 -0.875 0  0.59375 -0.875 0  0.625 -0.875 0  0.65625 -0.875 0  0.6875 -0.875 0  0.71875 -0.875 0  0.75 -0.875 0  0.78125 -0.875 0  0.8125 -0.875 0  0.84375 -0.875 0  0.875 -0.875 0  0.90625 -0.875 0  0.9375 -0.875 0  0.96875 -0.875 0  1 -0.875 0  -1 -0.84375 0  -0.96875 -0.84375 0  -0.9375 -0.84375 0  -0.90625 -0.84375 0  -0.875 -0.84375 0  -0.84375 -0.84375 0  -0.8125 -0.84375 0  -0.78125 -0.84375 0  -0.75 -0.84375 0  -0.71875 -0.84375 0  -0.6875 -0.84375 0  -0.65625 -0.84375 0  -0.625 -0.84375 0  -0.59375 -0.84375 0  -0.5625 -0.84375 0  -0.53125 -0.84375 0  -0.5 -0.84375 0  -0.46875 -0.84375 0  -0.4375 -0.84375 0  -0.40625 -0.84375 0  -0.375 -0.84375 0  -0.34375 -0.84375 0  -0.3125 -0.84375 0  -0.28125 -0.84375 0  -0.25 -0.84375 0  -0.21875 -0.84375 0  -0.1875 -0.84375 0  -0.15625 -0.84375 0  -0.125 -0.84375 0  -0.09375 -0.84375 0  -0.0625 -0.84375 0  -0.03125 -0.84375 0  0 -0.84375 0  0.03125 -0.84375 0  0.0625 -0.84375 0  0.09375 -0.84375 0  0.125 -0.84375 0  0.15625 -0.84375 0  0.1875 -0.84375 0  0.21875 -0.84375 0  0.25 -0.84375 0  0.28125 -0.84375 0  0.3125 -0.84375 0  0.34375 -0.84375 0  0.375 -0.84375 0  0.40625 -0.84375 0  0.4375 -0.84375 0  0.46875 -0.84375 0  0.5 -0.84375 0  0.53125 -0.84375 0  0.5625 -0.84375 0  0.59375 -0.84375 0  0.625 -0.84375 0  0.65625 -0.84375 0  0.6875 -0.84375 0  0.71875 -0.84375 0  0.75 -0.84375 0  0.78125 -0.84375 0  0.8125 -0.84375 0  0.84375 -0.84375 0  0.875 -0.84375 0  0.90625 -0.84375 0  0.9375 -0.84375 0  0.96875 -0.84375 0  1 -0.84375 0  -1 -0.8125 0  -0.96875 -0.8125 0  -0.9375 -0.8125 0  -0.90625 -0.8125 0  -0.875 -0.8125 0  -0.84375 -0.8125 0  -0.8125 -0.8125 0  -0.78125 -0.8125 0  -0.75 -0.8125 0  -0.71875 -0.8125 0  -0.6875 -0.8125 0  -0.65625 -0.8125 0  -0.625 -0.8125 0  -0.59375 -0.8125 0  -0.5625 -0.8125 0  -0.53125 -0.8125 0  -0.5 -0.8125 0  -0.46875 -0.8125 0  -0.4375 -0.8125 0  -0.40625 -0.8125 0  -0.375 -0.8125 0  -0.34375 -0.8125 0  -0.3125 -0.8125 0  -0.28125 -0.8125 0  -0.25 -0.8125 0  -0.21875 -0.8125 0  -0.1875 -0.8125 0  -0.15625 -0.8125 0  -0.125 -0.8125 0  -0.09375 -0.8125 0  -0.0625 -0.8125 0  -0.03125 -0.8125 0  0 -0.8125 0  0.03125 -0.8125 0  0.0625 -0.8125 0  0.09375 -0.8125 0  0.125 -0.8125 0  0.15625 -0.8125 0  0.1875 -0.8125 0  0.21875 -0.8125 0  0.25 -0.8125 0  0.28125 -0.8125 0  0.3125 -0.8125 0  0.34375 -0.8125 0  0.375 -0.8125 0  0.40625 -0.8125 0  0.4375 -0.8125 0  0.46875 -0.8125 0  0.5 -0.8125 0  0.53125 -0.8125 0  0.5625 -0.8125 0  0.59375 -0.8125 0  0.625 -0.8125 0  0.65625 -0.8125 0  0.6875 -0.8125 0  0.71875 -0.8125 0  0.75 -0.8125 0  0.78125 -0.8125 0  0.8125 -0.8125 0  0.84375 -0.8125 0  0.875 -0.8125 0  0.90625 -0.8125 0  0.9375 -0.8125 0  0.96875 -0.8125 0  1 -0.8125 0  -1 -0.78125 0  -0.96875 -0.78125 0  -0.9375 -0.78125 0  -0.90625 -0.78125 0  -0.875 -0.78125 0  -0.84375 -0.78125 0  -0.8125 -0.78125 0  -0.78125 -0.78125 0  -0.75 -0.78125 0  -0.71875 -0.78125 0  -0.6875 -0.78125 0  -0.65625 -0.78125 0  -0.625 -0.78125 0  -0.59375 -0.78125 0  -0.5625 -0.78125 0  -0.53125 -0.78125 0  -0.5 -0.78125 0  -0.46875 -0.78125 0  -0.4375 -0.78125 0  -0.40625 -0.78125 0  -0.375 -0.78125 0  -0.34375 -0.78125 0  -0.3125 -0.78125 0  -0.28125 -0.78125 0  -0.25 -0.78125 0  -0.21875 -0.78125 0  -0.1875 -0.78125 0  -0.15625 -0.78125 0  -0.125 -0.78125 0  -0.09375 -0.78125 0  -0.0625 -0.78125 0  -0.03125 -0.78125 0  0 -0.78125 0  0.03125 -0.78125 0  0.0625 -0.78125 0  0.09375 -0.78125 0  0.125 -0.78125 0  0.15625 -0.78125 0  0.1875 -0.78125 0  0.21875 -0.78125 0  0.25 -0.78125 0  0.28125 -0.78125 0  0.3125 -0.78125 0  0.34375 -0.78125 0  0.375 -0.78125 0  0.40625 -0.78125 0  0.4375 -0.78125 0  0.46875 -0.78125 0  0.5 -0.78125 0  0.53125 -0.78125 0  0.5625 -0.78125 0  0.59375 -0.78125 0  0.625 -0.78125 0  0.65625 -0.78125 0  0.6875 -0.78125 0  0.71875 -0.78125 0  0.75 -0.78125 0  0.78125 -0.78125 0  0.8125 -0.78125 0  0.84375 -0.78125 0  0.875 -0.78125 0  0.90625 -0.78125 0  0.9375 -0.78125 0  0.96875 -0.78125 0  1 -0.78125 0  -1 -0.75 0  -0.96875 -0.75 0  -0.9375 -0.75 0  -0.90625 -0.75 0  -0.875 -0.75 0  -0.84375 -0.75 0  -0.8125 -0.75 0  -0.78125 -0.75 0  -0.75 -0.75 0  -0.71875 -0.75 0  -0.6875 -0.75 0  -0.65625 -0.75 0  -0.625 -0.75 0  -0.59375 -0.75 0  -0.5625 -0.75 0  -0.53125 -0.75 0  -0.5 -0.75 0  -0.46875 -0.75 0  -0.4375 -0.75 0  -0.40625 -0.75
[...]
<PointData  Scalars="f_7"> 
<DataArray  type="Float64"  Name="f_7"  format="ascii">0.0000000000000000e+00  0.0000000000000000e+00  0.0000000000000000e+00  0.0000000000000000e+00  0.0000000000000000e+00  0.0000000000000000e+00  0.0000000000000000e+00  0.0000000000000000e+00  0.0000000000000000e+00  0.0000000000000000e+00  0.0000000000000000e+00  0.0000000000000000e+00  0.0000000000000000e+00  0.0000000000000000e+00  0.0000000000000000e+00  0.0000000000000000e+00  0.0000000000000000e+00  0.0000000000000000e+00  0.0000000000000000e+00  0.0000000000000000e+00  0.0000000000000000e+00  0.0000000000000000e+00  0.0000000000000000e+00  0.0000000000000000e+00  0.0000000000000000e+00  0.0000000000000000e+00  0.0000000000000000e+00  0.0000000000000000e+00  0.0000000000000000e+00  0.0000000000000000e+00  0.0000000000000000e+00  0.0000000000000000e+00  0.0000000000000000e+00  0.0000000000000000e+00  0.0000000000000000e+00  0.0000000000000000e+00  0.0000000000000000e+00  0.0000000000000000e+00  0.0000000000000000e+00  0.0000000000000000e+00  0.0000000000000000e+00  0.0000000000000000e+00  0.0000000000000000e+00  0.0000000000000000e+00  0.0000000000000000e+00  0.0000000000000000e+00  0.0000000000000000e+00  0.0000000000000000e+00  0.0000000000000000e+00  0.0000000000000000e+00  0.0000000000000000e+00  0.0000000000000000e+00  0.0000000000000000e+00  0.0000000000000000e+00  0.0000000000000000e+00  0.0000000000000000e+00  0.0000000000000000e+00  0.0000000000000000e+00  0.0000000000000000e+00  0.0000000000000000e+00  0.0000000000000000e+00  0.0000000000000000e+00  0.0000000000000000e+00  0.0000000000000000e+00  0.0000000000000000e+00  0.0000000000000000e+00  3.6597222747949764e-24  2.9917816106414128e-24  1.4270180665703328e-24  4.4659797375570045e-25  3.7635650493181289e-26  -5.7060082976957854e-26  -4.9611900865107820e-26  -2.6932831245929613e-26  -1.1210250519019527e-26  -3.8161826881578556e-27  -1.0509891163990737e-27  -1.9601737400056768e-28  4.4406720509006531e-31  2.0584489865317595e-29  1.1796664090026070e-29  4.6913893875936331e-30  1.4773509673228515e-30  3.7358837948996629e-31  7.4968631529517881e-32  1.1451834559277074e-32  1.1136613800314732e-33  -2.6666552317612612e-35  -4.6071812553343850e-35  -1.4599099507359524e-35  -3.4586876660337344e-36  -7.1138478355320031e-37  -1.3339090060676383e-37  -2.3299643270781141e-38  -3.8332901764044395e-39  -5.9728772657763205e-40  -8.8286902016976534e-41  -1.2355482585240742e-41  -1.6260158668114425e-42  -1.9811645343328551e-43  -2.1560716820510927e-44  -1.8951160558399602e-45  -7.8086839469462994e-47  1.8298258829664519e-47  6.8812749761796697e-48  1.5700945855384915e-48  3.0077170615919965e-49  5.2312537077161481e-50  8.5219760677619745e-51  1.3200900783969037e-51  1.9599196758975468e-52  2.7999657656548324e-53  3.8534624863769828e-54  5.1020961822923023e-55  6.4707304769068416e-56  7.7903128578659203e-57  8.7453750495594363e-58  8.8021369584527508e-59  7.1131433386401099e-60  2.3948765246789070e-61  -7.2237109324854594e-62  -2.4380766784533857e-62  -5.2682919295708805e-63  -9.6913554326179509e-64  -1.6321964738625828e-64  -2.5922426631045162e-65  -3.9386447719316453e-66  -5.7409621904376304e-67  -7.4603333807351765e-68  0.0000000000000000e+00  0.0000000000000000e+00  2.1203544851416294e-23  2.0680932579492573e-23  1.2194557452947428e-23  4.9871586305217769e-24  1.2905008762704191e-24  4.0310295531717715e-26  -2.0991997639937640e-25  -1.5712595035996174e-25  -7.6523167527596338e-26  -2.9931656807803659e-26  -9.4996841498281781e-27  -2.2895557147914553e-27  -3.2896529008151032e-28  4.3788923590440923e-29  5.8667026538085080e-29  2.8268686326546079e-29  9.6057322234532732e-30  2.5441110519976803e-30  5.4597236937363754e-31  9.6665456402376755e-32  1.3992894698054668e-32  1.5137621859721654e-33  6.0200629576176696e-35  -2.6703214755466949e-35  -1.0577010830783901e-35  -2.6679835314689309e-36  -5.6179725447161040e-37  -1.0617628457499905e-37  -1.8563897834165654e-38  -3.0480628608160271e-39  -4.7359647296635262e-40  -6.9836219521702573e-41  -9.7606405668728930e-42  -1.2847988680247393e-42  -1.5694770970333729e-43  -1.7211880578622501e-44  -1.5486531622326103e-45  -7.4048837176582644e-47  1.1821030495110446e-47  4.9209859026841580e-48  1.1461185418422173e-48  2.2127240076501868e-49  3.8621255423163196e-50  6.3018754307933524e-51  9.7685151111613879e-52  1.4505789673045450e-52  2.0721666209877317e-53  2.8513571717932956e-54  3.7747851922110369e-55  4.7875539815059062e-56  5.7662395955221495e-57  6.4807334372055920e-58  6.5420572228247992e-59  5.3332403520011069e-60  1.9207332353054407e-61  -5.0550752804072709e-62  -1.7509462208040176e-62  -3.8058458618868769e-63  -7.0168487142434880e-64  -1.1828850157319092e-64  -1.8788910633088002e-65  -2.8437056349428729e-66  -3.8903773333891302e-67  0.0000000000000000e+00  0.0000000000000000e+00  8.0014605301020554e-23  1.1434370906826498e-22  8.5532378524488121e-23  4.1905836273897395e-23  1.5171910680425691e-23  3.4788516276209226e-24  -2.1288839961982685e-25  -6.8564095419721973e-25  -4.4257350796906102e-25  -2.0295370310393903e-25  -7.2046253793560630e-26  -2.0301096211518982e-26  -4.3290913150838469e-27  -3.9263392385792468e-28  2.1502055617444771e-28  1.4626022450561013e-28  5.3624337770854440e-29  1.4557598918317163e-29  3.2107469690115207e-30  6.0313229576641210e-31  9.8694106177648128e-32  1.3993435935389797e-32  1.6252686761663171e-33  1.2007813140291911e-34  -7.2206507767110513e-36  -5.5433509954664768e-36  -1.5419966220136276e-36  -3.3479783681295465e-37  -6.3976808330267435e-38  -1.1227681512779455e-38  -1.8450162298402728e-39  -2.8657686785044948e-40  -4.2233779393798609e-41  -5.9023414206381216e-42  -7.7802219620166165e-43  -9.5468705602983960e-44  -1.0587685886430800e-44  -9.8229359310961790e-46  -5.4968393004681122e-47  5.0856206870553765e-48  2.5867626103209483e-48  6.2373857389953397e-49  1.2202300984219785e-49  2.1433811735095760e-50  3.5092174927267736e-51  5.4499222595043988e-52  8.1018142082179668e-53  1.1581699553654528e-53  1.5945800744619224e-54  2.1123615239485286e-55  2.6816961652225285e-56  3.2352253737793557e-57  3.6471964254806313e-58  3.7049748867708349e-59  3.0713499313365620e-60  1.2362738910686683e-61  -2.5427217195690964e-62  -9.3109897197599697e-63  -2.0495555523882580e-63  -3.7985861483160969e-64  -6.4193366369383746e-65  -1.0176348581560651e-65  -1.4544785575821510e-66  0.0000000000000000e+00  0.0000000000000000e+00  -4.5174961592051409e-23  4.5091458803116201e-22  4.8857481802277964e-22  2.9393972423029357e-22  1.3429696148130928e-22  4.2877535200624632e-23  7.5880624722813095e-24  -1.3098884579833159e-24  -2.1364498430475355e-24  -1.2237019558291429e-24  -4.9085148620952007e-25  -1.5907686922734688e-25  -4.1071219446627435e-26  -6.6685000688584693e-27  2.9382314276240468e-28  6.4489078993369233e-28  2.6135188248242437e-28  7.2315278680688870e-29  1.6140997089660089e-29  3.1100517134632215e-30  5.3411475326817592e-31  8.2546579332197688e-32  1.1372275331023559e-32  1.3430239611703343e-33  1.1852209722042245e-34  1.9869773430079863e-36  -2.3880285603813592e-36  -7.7635305220474773e-37  -1.7639164857217936e-37  -3.4320781746768104e-38  -6.0692501152505853e-39  -1.0002770883809275e-39  -1.5550463264613430e-40  -2.2924741838513202e-41  -3.2064494180425616e-42  -4.2364011902503760e-43  -5.2263569568374983e-44  -5.8662302957215925e-45  -5.6113326568968195e-46  -3.5769022840136029e-47  1.5932955930876971e-48  1.1880853045301307e-48  3.0058228803342891e-49  5.9843410079209293e-50  1.0600386558605700e-50  1.7434475956944666e-51  2.7148138204196831e-52  4.0424905097817980e-53  5.7854363365804756e-54  7.9731094400044093e-55  1.0573136603728085e-55  1.3442028788649229e-56  1.6253147630127174e-57  1.8395135818150488e-58  1.8833319985312116e-59  1.5926514148107008e-60  7.1927025562516917e-62  -1.0979998724122230e-62  -4.3674844145693637e-63  -9.7826933573434445e-64  -1.8258155818283858e-64  -3.0869330625717536e-65  -4.6387836383947583e-66  0.0000000000000000e+00  0.0000000000000000e+00  -4.3833401437650286e-21  1.5999147326316894e-22  1.9465994254141121e-21  1.7391685867734293e-21  9.8388655972853970e-22  3.8123755210663124e-22  1.1081121497225147e-22  1.5794683428212667e-23  -6.8311076516690266e-24  -6.2766286603432265e-24  -3.0309886627671388e-24  -1.1395974318986754e-24  -3.3017606071683176e-25  -6.4822461172978674e-26  -4.9138477423704219e-27  1.9252533991921258e-27  1.0077952696546009e-27  2.9287754125793381e-28  6.6880680875650914e-29  1.3223110117758416e-29  2.3549390361156324e-30  3.8384164554662112e-31  5.7454516314055860e-32  7.8315454771579040e-33  9.4367665485689883e-34  9.1899212090448317e-35  4.6216999335229423e-36  -8.3028229068211628e-37  -3.5713348250648455e-37  -8.6354559061521036e-38  -1.7194366775438987e-38  -3.0710403897231318e-39  -5.0845244836869375e-40  -7.9221268717561497e-41  -1.1695190104772369e-41  -1.6383273762065627e-42  -2.1705244416576116e-43  -2.6924991903266434e-44  -3.0572791684592928e-45  -3.0064239502170380e-46  -2.1203036319876436e-47  2.4359238556446028e-49  5.0226960089811421e-49  1.3526731117011792e-49  2.7509985439159533e-50  4.9219944306476303e-51  8.1392180390096359e-52  1.2714548919300668e-52  1.8971000911152170e-53  2.7189358129698155e-54  3.7515744293687871e-55  4.9813172547556833e-56  6.3435537987618826e-57  7.6897703950220395e-58  8.7410868107004970e-59  9.0249250264744471e-60  7.7913855300226829e-61  3.9063928395808570e-62  -4.2799879477906872e-63  -1.9088763342189528e-63  -4.3677105724140145e-64  -8.1967289262485721e-65  -1.3183424134937517e-65  0.0000000000000000e+00  0.0000000000000000e+00  -5.0370077237714223e-20  -2.0032863054676569e-20  7.6696204944783217e-22  7.9831210461935024e-21  5.8985129307471459e-21  2.8400155335337876e-21  1.0794773877483662e-21  2.6058388726921661e-22  1.2785193332062775e-23  -2.3482444096142249e-23  -1.6775485885555165e-23  -7.5204531144690244e-24  -2.3637604434883685e-24  -5.1611567959132597e-25  -7.0941000862326611e-26  -1.9196235349060771e-27  2.2101639601697968e-27  8.3990720620531874e-28  2.1363013252251598e-28  4.5480999206184721e-29  8.6353110997265139e-30  1.4993233710236403e-30  2.4060252063290691e-31  3.5733770732063561e-32  4.8713937330093888e-33  5.9538485202348745e-34  6.1239988564921395e-35  4.1513054799279571e-36  -1.9616229920530615e-37  -1.5241165332318847e-37  -3.9991182274566411e-38  -8.1954364443894714e-39  -1.4826447026303812e-39  -2.4700441844813399e-40  -3.8609988128013045e-41  -5.7115945486655631e-42  -8.0173951185893608e-43  -1.0653926914705769e-43  -1.3287549119567108e-44  -1.5248460348634255e-45  -1.5357673999788923e-46  -1.1701713529755070e-47  -1.3535830631413809e-49  1.9952341233706125e-49  5.8168570582585627e-50  1.2125914386390082e-50  2.1941840016307375e-51  3.6505065776293432e-52  5.7230710440563101e-53  8.5588263740114424e-54  1.2286554322134206e-54  1.6976032353895633e-55  2.2572531890475115e-56  2.8797221740913589e-57  3.5001959115427398e-58  3.9965025924458559e-59  4.1613027328795522e-60  3.6654076137749657e-61  2.0109549933793190e-62  -1.5261956875827681e-63  -7.9626345247273871e-64  -1.8624191274084495e-64  -3.3441844430165427e-65  0.0000000000000000e+00  0.0000000000000000e+00  -3.8273030203685395e-19  -2.5643157077567247e-19  -8.0645641760434722e-20  1.5749035166251984e-20  2.6565792609523732e-20  1.8388112123089399e-20  8.4621471709961664e-21  2.5434815512440618e-21  5.0612550077366172e-22  -9.4418119568617352e-24  -8.0887867961387112e-23  -4.5838432357852803e-23  -1.5364609889179370e-23  -3.5984160237005685e-24  -6.2464518602841911e-25  -7.9177988279200690e-26  -5.2961736120645229e-27  8.0850424774469516e-28  4.3868911196392861e-28  1.2029298902644411e-28  2.6234897839309915e-29  5.0046949755117853e-30  8.6604309666936009e-31  1.3811313931883396e-31  2.0403247299833738e-32  2.7813556307193102e-33  3.4386404693987353e-34  3.6754981404888530e-35  2.8953567450334451e-36  1.3502828101763117e-38  -6.0532154082350169e-38  -1.7714019519051679e-38  -3.7563056789196299e-39  -6.8968011600511276e-40  -1.1574962073674392e-40  -1.8167624017483788e-41  -2.6948235845221590e-42  -3.7919115087634430e-43  -5.0546140137636391e-44  -6.3362411222260484e-45  -7.3404547622366881e-46  -7.5446944241794773e-47  -6.1008191553171104e-48  -1.7124549824741406e-49  7.5075718354078832e-50  2.4189755052473067e-50  5.1850047714358489e-51  9.4985877731509599e-52  1.5906846073826799e-52  2.5034388232158393e-53  3.7531554424930695e-54  5.3972930976315513e-55  7.4681935032957795e-56  9.9449770705667062e-57  1.2710862661079351e-57  1.5491018622720946e-58  1.7765243190718250e-59  1.8649214370610842e-60  1.6738024993318094e-61  9.9067113378316411e-63  -4.9320807061735225e-64  -3.1998396499189148e-64  -7.2929133197874476e-65  0.0000000000000000e+00  0.0000000000000000e+00  -2.0532001865808963e-18  -2.1932091221552431e-18  -9.8228863822197758e-19  -1.9729012126836661e-19  5.3696011580434904e-20  9.8817999365432871e-20  5.4739462936979962e-20  2.0424871476618332e-20  6.1359935907666406e-21  9.0004403401719406e-22  -3.1833115460232794e-22  -2.5295656040956061e-22  -8.8547280613825200e-23  -2.1434144165786561e-23  -4.0834179247875421e-24  -6.4738967301301366e-25  -8.4667927485740651e-26  -7.9630309472872089e-27  -9.5184083141021821e-29  1.8996424092437095e-28  6.1260950662320554e-29  1.3856061255129135e-29  2.6645522385388576e-30  4.6120970914719148e-31  7.3506463232178683e-32  1.0871928679527853e-32  1.4886637492455101e-33  1.8604758386646302e-34  2.0434954004984014e-35  1.7587695424052218e-36  5.5846508612145491e-38  -2.2286136753095121e-38  -7.5482967956077731e-39  -1.6653786851638300e-39  -3.1095200145651562e-40  -5.2629376042244905e-41  -8.2997143987720741e-42  -1.2349343054371099e-42  -1.7423172878800093e-43  -2.3298251499333272e-44  -2.9344611243811912e-45  -3.4280776924878139e-46  -3.5842726921645266e-47  -3.0355321564835963e-48  -1.2204285723915858e-49  2.6776247324082285e-50  9.7957564668463495e-51  2.1652502993277434e-51  4.0189053522473562e-52  6.7766573821783051e-53  1.0708270379453062e-53  1.6095367136142367e-54  2.3188716216786894e-55  3.2134476291089110e-56  4.2856163258295498e-57  5.4875612096292808e-58  6.7052576480238664e-59  7.7219289616656012e-60  8.1684036198261435e-61  7.4577676963585685e-62  4.7023096540539755e-63  -1.3723837955216730e-64  -1.1806063653347010e-64  0.0000000000000000e+00  0.0000000000000000e+00  -6.5441865752919877e-18  -1.3742620529854208e-17  -7.6512769602060895e-18  -3.3055129403832492e-18  -5.4882503637257352e-19  3.6298035228725444e-19  2.8713558813271491e-19  1.4634131229030203e-19  5.5380798493729380e-20  1.1034969500767541e-20  -6.0178574130462966e-22  -1.1340051064941270e-21  -4.1419076860295633e-22  -1.0134783135838910e-22  -1.9971507720909092e-23  -3.3916492651698060e-24  -5.0354881065727861e-25  -6.3951790479564265e-26  -6.3754923318645313e-27  -3.0358160411279959e-28  6.8292398861609960e-29  2.8055682854892137e-29  6.7203399555046705e-30  1.3220972626504033e-30  2.3125572465437225e-31  3.7036716469669658e-32  5.4931283581741125e-33  7.5512127341706480e-34  9.5219298998414766e-35  1.0682672924959695e-35  9.7623244187411441e-37  4.7239456609866175e-38  -7.4723020575546072e-39  -3.1091383284552455e-39  -7.1767109245504972e-40  -1.3646159457757349e-40  -2.3307628162716747e-41  -3.6948094318581033e-42  -5.5164926523227345e-43  -7.8049646059775480e-44  -1.0469101897062483e-44  -1.3243771631265105e-45  -1.5585652230170844e-46  -1.6532560939556162e-47  -1.4521888249990846e-48  -7.1674980212723374e-50  8.9985583905315916e-51  3.8801471947073546e-51  8.8680004449787306e-52  1.6686067732905982e-52  2.8334894395200989e-53  4.4958473684874564e-54  6.7754130937263720e-55  9.7795881827865515e-56  1.3572964694660113e-56  1.8128600627586277e-57  2.3254196739307553e-58  2.8484848744244314e-59  3.2932702376783688e-60  3.5082844658467429e-61  3.2523440188683692e-62  2.1594507328736294e-63  -2.3311469107170699e-65  0.0000000000000000e+00  0.0000000000000000e+00  1.5024167360240262e-17  -4.9565618365915394e-17  -4.5861633421407407e-17  -3.1482600766316631e-17  -8.4976465947052690e-18  -2.3248577523955752e-19  1.0412844207236531e-18  9.4071737642625986e-19  4.2087466363209006e-19  9.7591448584167645e-20  7.4253837069618643e-21  -2.7647048163952101e-21  -1.2974881653691032e-21  -3.4002461734433591e-22  -7.1134889707035927e-23  -1.2970470578360297e-23  -2.1141713833727208e-24  -3.0949607294276502e-25  -4.0055993586195363e-26  -4.3027500897808173e-27  -2.9658017538635776e-28  1.6429926916544996e-29  1.1888230358486142e-29  3.0903926861185187e-30  6.2449011760026910e-31  1.1042985062107812e-31  1.7787650627675748e-32  2.6504598576877831e-33  3.6635157309916612e-34  4.6591608716732443e-35  5.3152129203595147e-36  5.0674977620407240e-37  3.0145969951929510e-38  -2.1864735034873002e-39  -1.2417436739361129e-39  -3.0160129451484565e-40  -5.8476869705659530e-41  -1.0084309441143598e-41  -1.6073612968556824e-42  -2.4084703097646494e-43  -3.4174329229414765e-44  -4.5977270633216568e-45  -5.8396537563783528e-46  -6.9167139152028877e-47  -7.4268455969831181e-48  -6.7167237089366415e-49  -3.7889153753026282e-50  2.8054001037013741e-51  1.5080642239330045e-51  3.5723068380634511e-52  6.8163226913602537e-53  1.1657336637001159e-53  1.8572750937167095e-54  2.8063421550400738e-55  4.0581677184940771e-56  5.6407215600951983e-57  7.5448899461623541e-58  9.6944770161076756e-59  1.1902668762277182e-59  1.3811021356617794e-60  1.4805743281531974e-61  1.3889372902625097e-62  9.2944365857480583e-64  0.0000000000000000e+00  0.0000000000000000e+00  4.3143188252447431e-16  9.4783035551534584e-17  -2.0600587671743405e-16  -2.0819126780951094e-16  -7.3235088612522010e-17  -2.2521415637164338e-17  -8.2864435755684177e-20  5.5404512945847731e-18  2.8842963858962296e-18  7.5323757757123230e-19  1.1775714641838805e-19  9.3218089710404408e-21  -9.4128333067319860e-22  -6.1297842669448150e-22  -1.7399904433121837e-22  -3.8145903716686847e-23  -7.1445301517247308e-24  -1.1855712541399218e-24  -1.7582294444196152e-25  -2.3027029499021080e-26  -2.5486405583038271e-27  -2.0238125095146436e-28  2.6169050538071355e-31  4.7083942409572350e-30  1.3503734422371536e-30  2.8194376265583761e-31  5.0626127699899455e-32  8.2222136998455921e-33  1.2316182169520601e-33  1.7109168463847324e-34  2.1919929234882078e-35  2.5353984727358302e-36  2.4961076787354251e-37  1.6828410885235074e-38  -4.8596049294771959e-40  -4.8230387422908696e-40  -1.2398531117483674e-40  -2.4532496454092381e-41  -4.2724928045963405e-42  -6.8482930527461201e-43  -1.0299130406449659e-43  -1.4655680562936298e-44  -1.9773959120961559e-45  -2.5207167330069238e-46  -3.0025592620112965e-47  -3.2574589469646479e-48  -3.0163551967846186e-49  -1.8685215187324199e-50  7.8235952710275892e-52  5.7649146179512483e-52  1.4183524509044794e-52  2.7448035708913398e-53  4.7273097163792962e-54  7.5622060874773626e-55  1.1455930037548187e-55  1.6596071063782631e-56  2.3101488609214727e-57  3.0942717638568220e-58  3.9821614187592971e-59  4.8996684751280265e-60  5.7034276345956575e-61  6.1374051797756007e-62  5.5867634030755315e-63  0.0000000000000000e+00  0.0000000000000000e+00  3.3294721594776586e-15  3.4043451998689196e-15  -3.1158167797100466e-16  -8.8374380062815391e-16  -5.2490542139995784e-16  -2.8248130627287462e-16  -3.9138838457707343e-17  3.0055625836116786e-17  1.7255187891009791e-17  4.7397501674991015e-18  9.0177678324234998e-19  1.3399254412221031e-19  1.4918209474232866e-20  6.8502626708238060e-22  -2.1519985497310727e-22  -8.3690314863535685e-23  -1.9502273474486287e-23  -3.6944291437544830e-24  -6.1174587012879083e-25  -9.0659987771655817e-26  -1.2005337926518564e-26  -1.3728758431592103e-27  -1.2018491059470093e-28  -3.3411968135685737e-30  1.7385804717010843e-30  5.6855902437205930e-31  1.2306055406669454e-31  2.2433707533060577e-32  3.6735689470110483e-33  5.5349766383533719e-34  7.7311473067897641e-35  9.9730975950183796e-36  1.1667580643003419e-36  1.1773374220637662e-37  8.6293111011353571e-39