<?xml version="1.0"?>
<VTKFile type="UnstructuredGrid"  version="0.1"  >
<UnstructuredGrid>
<Piece  NumberOfPoints="4225" NumberOfCells="8192">
<Points>
<DataArray  type="Float64"  NumberOfComponents="3"  format="ascii">-1 -1 0  -0.96875 -1 0  -0.9375 -1 0  -0.90625 -1 0  -0.875 -1 0  -0.84375 -1 0  -0.8125 -1 0  -0.78125 -1 0  -0.75 -1 0  -0.71875 -1 0  -0.6875 -1 0  -0.65625 -1 0  -0.625 -1 0  -0.59375 -1 0  -0.5625 -1 0  -0.53125 -1 0  -0.5 -1 0  -0.46875 -1 0  -0.4375 -1 0  -0.40625 -1 0  -0.375 -1 0  -0.34375 -1 0  -0.3125 -1 0  -0.28125 -1 0  -0.25 -1 0  -0.21875 -1 0  -0.1875 -1 0  -0.15625 -1 0  -0.125 -1 0  -0.09375 -1 0  -0.0625 -1 0  -0.03125 -1 0  0 -1 0  0.03125 -1 0  0.0625 -1 0  0.09375 -1 0  0.125 -1 0  0.15625 -1 0  0.1875 -1 0  0.21875 -1 0  0.25 -1 0  0.28125 -1 0  0.3125 -1 0  0.34375 -1 0  0.375 -1 0  0.40625 -1 0  0.4375 -1 0  0.46875 -1 0  0.5 -1 0  0.53125 -1 0  0.5625 -1 0  0.59375 -1 0  0.625 -1 0  0.65625 -1 0  0.6875 -1 0  0.71875 -1 0  0.75 -1 0  0.78125 -1 0  0.8125 -1 0  0.84375 -1 0  0.875 -1 0  0.90625 -1 0  0.9375 -1 0  0.96875 -1 0  1 -1 0  -1 -0.96875 0  -0.96875 -0.96875 0  -0.9375 -0.96875 0  -0.90625 -0.96875 0  -0.875 -0.96875 0  -0.84375 -0.96875 0  -0.8125 -0.96875 0  -0.78125 -0.96875 0  -0.75 -0.96875 0  -0.71875 -0.96875 0  -0.6875 -0.96875 0  -0.65625 -0.96875 0  -0.625 -0.96875 0  -0.59375 -0.96875 0  -0.5625 -0.96875 0  -0.53125 -0.96875 0  -0.5 -0.96875 0  -0.46875 -0.96875 0  -0.4375 -0.96875 0  -0.40625 -0.96875 0  -0.375 -0.96875 0  -0.34375 -0.96875 0  -0.3125 -0.96875 0  -0.28125 -0.96875 0  -0.25 -0.96875 0  -0.21875 -0.96875 0  -0.1875 -0.96875 0  -0.15625 -0.96875 0  -0.125 -0.96875 0  -0.09375 -0.96875 0  -0.0625 -0.96875 0  -0.03125 -0.96875 0  0 -0.96875 0  0.03125 -0.96875 0  0.0625 -0.96875 0  0.09375 -0.96875 0  0.125 -0.96875 0  0.15625 -0.96875 0  0.1875 -0.96875 0  0.21875 -0.96875 0  0.25 -0.96875 0  0.28125 -0.96875 0  0.3125 -0.96875 0  0.34375 -0.96875 0  0.375 -0.96875 0  0.40625 -0.96875 0  0.4375 -0.96875 0  0.46875 -0.96875 0  0.5 -0.96875 0  0.53125 -0.96875 0  0.5625 -0.96875 0  0.59375 -0.96875 0  0.625 -0.96875 0  0.65625 -0.96875 0  0.6875 -0.96875 0  0.71875 -0.96875 0  0.75 -0.96875 0  0.78125 -0.96875 0  0.8125 -0.96875 0  0.84375 -0.96875 0  0.875 -0.96875 0  0.90625 -0.96875 0  0.9375 -0.96875 0  0.96875 -0.96875 0  1 -0.96875 0  -1 -0.9375 0  -0.96875 -0.9375 0  -0.9375 -0.9375 0  -0.90625 -0.9375 0  -0.875 -0.9375 0  -0.84375 -0.9375 0  -0.8125 -0.9375 0  -0.78125 -0.9375 0  -0.75 -0.9375 0  -0.71875 -0.9375 0  -0.6875 -0.9375 0  -0.65625 -0.9375 0  -0.625 -0.9375 0  -0.59375 -0.9375 0  -0.5625 -0.9375 0  -0.53125 -0.9375 0  -0.5 -0.9375 0  -0.46875 -0.9375 0  -0.4375 -0.9375 0  -0.40625 -0.9375 0  -0.375 -0.9375 0  -0.34375 -0.9375 0  -0.3125 -0.9375 0  -0.28125 -0.9375 0  -0.25 -0.9375 0  -0.21875 -0.9375 0  -0.1875 -0.9375 0  -0.15625 -0.9375 0  -0.125 -0.9375 0  -0.09375 -0.9375 0  -0.0625 -0.9375 0  -0.03125 -0.9375 0  0 -0.9375 0  0.03125 -0.9375 0  0.0625 -0.9375 0  0.09375 -0.9375 0  0.125 -0.9375 0  0.15625 -0.9375 0  0.1875 -0.9375 0  0.21875 -0.9375 0  0.25 -0.9375 0  0.28125 -0.9375 0  0.3125 -0.9375 0  0.34375 -0.9375 0  0.375 -0.9375 0  0.40625 -0.9375 0  0.4375 -0.9375 0  0.46875 -0.9375 0  0.5 -0.9375 0  0.53125 -0.9375 0  0.5625 -0.9375 0  0.59375 -0.9375 0  0.625 -0.9375 0  0.65625 -0.9375 0  0.6875 -0.9375 0  0.71875 -0.9375 0  0.75 -0.9375 0  0.78125 -0.9375 0  0.8125 -0.9375 0  0.84375 -0.9375 0  0.875 -0.9375 0  0.90625 -0.9375 0  0.9375 -0.9375 0  0.96875 -0.9375 0  1 -0.9375 0  -1 -0.90625 0  -0.96875 -0.90625 0  -0.9375 -0.90625 0  -0.90625 -0.90625 0  -0.875 -0.90625 0  -0.84375 -0.90625 0  -0.8125 -0.90625 0  -0.78125 -0.90625 0  -0.75 -0.90625 0  -0.71875 -0.90625 0  -0.6875 -0.90625 0  -0.65625 -0.90625 0  -0.625 -0.90625 0  -0.59375 -0.90625 0  -0.5625 -0.90625 0  -0.53125 -0.90625 0  -0.5 -0.90625 0  -0.46875 -0.90625 0  -0.4375 -0.90625 0  -0.40625 -0.90625 0  -0.375 -0.90625 0  -0.34375 -0.90625 0  -0.3125 -0.90625 0  -0.28125 -0.90625 0  -0.25 -0.90625 0  -0.21875 -0.90625 0  -0.1875 -0.90625 0  -0.15625 -0.90625 0  -0.125 -0.90625 0  -0.09375 -0.90625 0  -0.0625 -0.90625 0  -0.03125 -0.90625 0  0 -0.90625 0  0.03125 -0.90625 0  0.0625 -0.90625 0  0.09375 -0.90625 0  0.125 -0.90625 0  0.15625 -0.90625 0  0.1875 -0.90625 0  0.21875 -0.90625 0  0.25 -0.90625 0  0.28125 -0.90625 0  0.3125 -0.90625 0  0.34375 -0.90625 0  0.375 -0.90625 0  0.40625 -0.90625 0  0.4375 -0.90625 0  0.46875 -0.90625 0  0.5 -0.90625 0  0.53125 -0.90625 0  0.5625 -0.90625 0  0.59375 -0.90625 0  0.625 -0.90625 0  0.65625 -0.90625 0  0.6875 -0.90625 0  0.71875 -0.90625 0  0.75 -0.90625 0  0.78125 -0.90625 0  0.8125 -0.90625 0  0.84375 -0.90625 0  0.875 -0.90625 0  0.90625 -0.90625 0  0.9375 -0.90625 0  0.96875 -0.90625 0  1 -0.90625 0  -1 -0.875 0  -0.96875 -0.875 0  -0.9375 -0.875 0  -0.90625 -0.875 0  -0.875 -0.875 0  -0.84375 -0.875 0  -0.8125 -0.875 0  -0.78125 -0.875 0  -0.75 -0.875 0  -0.71875 -0.875 0  -0.6875 -0.875 0  -0.65625 -0.875 0  -0.625 -0.875 0  -0.59375 -0.875 0  -0.5625 -0.875 0  -0.53125 -0.875 0  -0.5 -0.875 0  -0.46875 -0.875 0  -0.4375 -0.875 0  -0.40625 -0.875 0  -0.375 -0.875 0  -0.34375 -0.875 0  -0.3125 -0.875 0  -0.28125 -0.875 0  -0.25 -0.875 0  -0.21875 -0.875 0  -0.1875 -0.875 0  -0.15625 -0.875 0  -0.125 -0.875 0  -0.09375 -0.875 0  -0.0625 -0.875 0  -0.03125 -0.875 0  0 -0.875 0  0.03125 -0.875 0  0.0625 -0.875 0  0.09375 -0.875 0  0.125 -0.875 0  0.15625 -0.875 0  0.1875 -0.875 0  0.21875 -0.875 0  0.25 -0.875 0  0.28125 -0.875 0  0.3125 -0.875 0  0.34375 -0.875 0  0.375 -0.875 0  0.40625 -0.875 0  0.4375 -0.875 0  0.46875 -0.875 0  0.5 -0.875 0  0.53125 -0.875 0  0.5625 -0.875 0  0.59375 -0.875 0  0.625 -0.875 0  0.65625 -0.875 0  0.6875 -0.875 0  0.71875 -0.875 0  0.75 -0.875 0  0.78125 -0.875 0  0.8125 -0.875 0  0.84375 -0.875 0  0.875 -0.875 0  0.90625 -0.875 0  0.9375 -0.875 0  0.96875 -0.875 0  1 -0.875 0  -1 -0.84375 0  -0.96875 -0.84375 0  -0.9375 -0.84375 0  -0.90625 -0.84375 0  -0.875 -0.84375 0  -0.84375 -0.84375 0  -0.8125 -0.84375 0  -0.78125 -0.84375 0  -0.75 -0.84375 0  -0.71875 -0.84375 0  -0.6875 -0.84375 0  -0.65625 -0.84375 0  -0.625 -0.84375 0  -0.59375 -0.84375 0  -0.5625 -0.84375 0  -0.53125 -0.84375 0  -0.5 -0.84375 0  -0.46875 -0.84375 0  -0.4375 -0.84375 0  -0.40625 -0.84375 0  -0.375 -0.84375 0  -0.34375 -0.84375 0  -0.3125 -0.84375 0  -0.28125 -0.84375 0  -0.25 -0.84375 0  -0.21875 -0.84375 0  -0.1875 -0.84375 0  -0.15625 -0.84375 0  -0.125 -0.84375 0  -0.09375 -0.84375 0  -0.0625 -0.84375 0  -0.03125 -0.84375 0  0 -0.84375 0  0.03125 -0.84375 0  0.0625 -0.84375 0  0.09375 -0.84375 0  0.125 -0.84375 0  0.15625 -0.84375 0  0.1875 -0.84375 0  0.21875 -0.84375 0  0.25 -0.84375 0  0.28125 -0.84375 0  0.3125 -0.84375 0  0.34375 -0.84375 0  0.375 -0.84375 0  0.40625 -0.84375 0  0.4375 -0.84375 0  0.46875 -0.84375 0  0.5 -0.84375 0  0.53125 -0.84375 0  0.5625 -0.84375 0  0.59375 -0.84375 0  0.625 -0.84375 0  0.65625 -0.84375 0  0.6875 -0.84375 0  0.71875 -0.84375 0  0.75 -0.84375 0  0.78125 -0.84375 0  0.8125 -0.84375 0  0.84375 -0.84375 0  0.875 -0.84375 0  0.90625 -0.84375 0  0.9375 -0.84375 0  0.96875 -0.84375 0  1 -0.84375 0  -1 -0.8125 0  -0.96875 -0.8125 0  -0.9375 -0.8125 0  -0.90625 -0.8125 0  -0.875 -0.8125 0  -0.84375 -0.8125 0  -0.8125 -0.8125 0  -0.78125 -0.8125 0  -0.75 -0.8125 0  -0.71875 -0.8125 0  -0.6875 -0.8125 0  -0.65625 -0.8125 0  -0.625 -0.8125 0  -0.59375 -0.8125 0  -0.5625 -0.8125 0  -0.53125 -0.8125 0  -0.5 -0.8125 0  -0.46875 -0.8125 0  -0.4375 -0.8125 0  -0.40625 -0.8125 0  -0.375 -0.8125 0  -0.34375 -0.8125 0  -0.3125 -0.8125 0  -0.28125 -0.8125 0  -0.25 -0.8125 0  -0.21875 -0.8125 0  -0.1875 -0.8125 0  -0.15625 -0.8125 0  -0.125 -0.8125 0  -0.09375 -0.8125 0  -0.0625 -0.8125 0  -0.03125 -0.8125 0  0 -0.8125 0  0.03125 -0.8125 0  0.0625 -0.8125 0  0.09375 -0.8125 0  0.125 -0.8125 0  0.15625 -0.8125 0  0.1875 -0.8125 0  0.21875 -0.8125 0  0.25 -0.8125 0  0.28125 -0.8125 0  0.3125 -0.8125 0  0.34375 -0.8125 0  0.375 -0.8125 0  0.40625 -0.8125 0  0.4375 -0.8125 0  0.46875 -0.8125 0  0.5 -0.8125 0  0.53125 -0.8125 0  0.5625 -0.8125 0  0.59375 -0.8125 0  0.625 -0.8125 0  0.65625 -0.8125 0  0.6875 -0.8125 0  0.71875 -0.8125 0  0.75 -0.8125 0  0.78125 -0.8125 0  0.8125 -0.8125 0  0.84375 -0.8125 0  0.875 -0.8125 0  0.90625 -0.8125 0  0.9375 -0.8125 0  0.96875 -0.8125 0  1 -0.8125 0  -1 -0.78125 0  -0.96875 -0.78125 0  -0.9375 -0.78125 0  -0.90625 -0.78125 0  -0.875 -0.78125 0  -0.84375 -0.78125 0  -0.8125 -0.78125 0  -0.78125 -0.78125 0  -0.75 -0.78125 0  -0.71875 -0.78125 0  -0.6875 -0.78125 0  -0.65625 -0.78125 0  -0.625 -0.78125 0  -0.59375 -0.78125 0  -0.5625 -0.78125 0  -0.53125 -0.78125 0  -0.5 -0.78125 0  -0.46875 -0.78125 0  -0.4375 -0.78125 0  -0.40625 -0.78125 0  -0.375 -0.78125 0  -0.34375 -0.78125 0  -0.3125 -0.78125 0  -0.28125 -0.78125 0  -0.25 -0.78125 0  -0.21875 -0.78125 0  -0.1875 -0.78125 0  -0.15625 -0.78125 0  -0.125 -0.78125 0  -0.09375 -0.78125 0  -0.0625 -0.78125 0  -0.03125 -0.78125 0  0 -0.78125 0  0.03125 -0.78125 0  0.0625 -0.78125 0  0.09375 -0.78125 0  0.125 -0.78125 0  0.15625 -0.78125 0  0.1875 -0.78125 0  0.21875 -0.78125 0  0.25 -0.78125 0  0.28125 -0.78125 0  0.3125 -0.78125 0  0.34375 -0.78125 0  0.375 -0.78125 0  0.40625 -0.78125 0  0.4375 -0.78125 0  0.46875 -0.78125 0  0.5 -0.78125 0  0.53125 -0.78125 0  0.5625 -0.78125 0  0.59375 -0.78125 0  0.625 -0.78125 0  0.65625 -0.78125 0  0.6875 -0.78125 0  0.71875 -0.78125 0  0.75 -0.78125 0  0.78125 -0.78125 0  0.8125 -0.78125 0  0.84375 -0.78125 0  0.875 -0.78125 0  0.90625 -0.78125 0  0.9375 -0.78125 0  0.96875 -0.78125 0  1 -0.78125 0  -1 -0.75 0  -0.96875 -0.75 0  -0.9375 -0.75 0  -0.90625 -0.75 0  -0.875 -0.75 0  -0.84375 -0.75 0  -0.8125 -0.75 0  -0.78125 -0.75 0  -0.75 -0.75 0  -0.71875 -0.75 0  -0.6875 -0.75 0  -0.65625 -0.75 0  -0.625 -0.75 0  -0.59375 -0.75 0  -0.5625 -0.75 0  -0.53125 -0.75 0  -0.5 -0.75 0  -0.46875 -0.75 0  -0.4375 -0.75 0  -0.40625 -0.75
[...]
<PointData  Scalars="f_7"> 
<DataArray  type="Float64"  Name="f_7"  format="ascii">0.0000000000000000e+00  0.0000000000000000e+00  0.0000000000000000e+00  0.0000000000000000e+00  0.0000000000000000e+00  0.0000000000000000e+00  0.0000000000000000e+00  0.0000000000000000e+00  0.0000000000000000e+00  0.0000000000000000e+00  0.0000000000000000e+00  0.0000000000000000e+00  0.0000000000000000e+00  0.0000000000000000e+00  0.0000000000000000e+00  0.0000000000000000e+00  0.0000000000000000e+00  0.0000000000000000e+00  0.0000000000000000e+00  0.0000000000000000e+00  0.0000000000000000e+00  0.0000000000000000e+00  0.0000000000000000e+00  0.0000000000000000e+00  0.0000000000000000e+00  0.0000000000000000e+00  0.0000000000000000e+00  0.0000000000000000e+00  0.0000000000000000e+00  0.0000000000000000e+00  0.0000000000000000e+00  0.0000000000000000e+00  0.0000000000000000e+00  0.0000000000000000e+00  0.0000000000000000e+00  0.0000000000000000e+00  0.0000000000000000e+00  0.0000000000000000e+00  0.0000000000000000e+00  0.0000000000000000e+00  0.0000000000000000e+00  0.0000000000000000e+00  0.0000000000000000e+00  0.0000000000000000e+00  0.0000000000000000e+00  0.0000000000000000e+00  0.0000000000000000e+00  0.0000000000000000e+00  0.0000000000000000e+00  0.0000000000000000e+00  0.0000000000000000e+00  0.0000000000000000e+00  0.0000000000000000e+00  0.0000000000000000e+00  0.0000000000000000e+00  0.0000000000000000e+00  0.0000000000000000e+00  0.0000000000000000e+00  0.0000000000000000e+00  0.0000000000000000e+00  0.0000000000000000e+00  0.0000000000000000e+00  0.0000000000000000e+00  0.0000000000000000e+00  0.0000000000000000e+00  0.0000000000000000e+00  -1.2198406974322911e-25  -2.1895610943786587e-25  -1.7035679665504760e-25  -9.5347527518061388e-26  -4.2448579608818354e-26  -1.5301046761966758e-26  -4.4168977116055042e-27  -8.3234480771387336e-28  4.9392302476083665e-29  1.3855344804619629e-28  8.3674860972390988e-29  3.6859930886229253e-29  1.3354312674634821e-29  4.1443340997646941e-30  1.1160489681750307e-30  2.5168250958087965e-31  4.1585497570350146e-32  2.3141829075639654e-33  -1.4865925438500499e-33  -7.3125567681823531e-34  -2.1604392184160465e-34  -5.0661199297835837e-35  -1.0295939551517567e-35  -1.8963211146144989e-36  -3.2463040472344020e-37  -5.2361180443977789e-38  -8.0092732550896034e-39  -1.1640651080367694e-39  -1.6038872401624861e-40  -2.0782251390003687e-41  -2.4869233773619211e-42  -2.6368081525834816e-43  -2.1937675936776233e-44  -6.1771301448187372e-46  2.9228557737643030e-46  9.6570237323439998e-47  2.1335646518482575e-47  4.0367086618149109e-48  6.9951321039977049e-49  1.1418819380715925e-49  1.7811920379018448e-50  2.6763849656231012e-51  3.8917623448422820e-52  5.4901584953465475e-53  7.5205347759296852e-54  9.9973850201773729e-55  1.2868463715039095e-55  1.5966309519919238e-56  1.8937867375144333e-57  2.1145238222080803e-58  2.1529277034655899e-59  1.8426588018562761e-60  9.3297149428764183e-62  -9.4195918568719323e-63  -4.3012635711352153e-63  -9.8636359622010444e-64  -1.8601374169176113e-64  -3.1800695186424027e-65  -5.1124764923819276e-66  -7.8671350985384197e-67  -1.1697758738037650e-67  -1.6815826998048610e-68  -2.1704090304054262e-69  0.0000000000000000e+00  0.0000000000000000e+00  2.6552775520007096e-25  -8.0776854716859964e-25  -9.3983590480042287e-25  -6.3904910735593160e-25  -3.2055134894384557e-25  -1.3120956310299319e-25  -4.4461180386356874e-26  -1.1518263045684224e-26  -1.7341113429470900e-27  3.2411600863910662e-28  4.2615685372121910e-28  2.2780759908524547e-28  9.0897781285135198e-29  3.0462826143594038e-29  8.8025602491649134e-30  2.1312610645028948e-30  4.0291202192307234e-31  4.9135086714995969e-32  -6.8794096643181134e-34  -2.4575844603993472e-33  -8.7356172894894583e-34  -2.2146195067471076e-34  -4.7538031639129078e-35  -9.1816067803464573e-36  -1.6418665915415144e-36  -2.7595598488359425e-37  -4.3955638448730952e-38  -6.6619432638377972e-39  -9.6130989555078932e-40  -1.3169935281101344e-40  -1.7001762770543671e-41  -2.0346928529454158e-42  -2.1749242011308558e-43  -1.8690374977679534e-44  -7.1020015439414792e-46  1.9258318837106358e-46  6.9577838576052615e-47  1.5689523488256169e-47  2.9909505783287889e-48  5.1988660687356511e-49  8.4958183736620654e-50  1.3253690704069973e-50  1.9906161776463000e-51  2.8925103098509513e-52  4.0770306467702660e-53  5.5798478453033183e-54  7.4112454042727127e-55  9.5325484212708905e-56  1.1820807645622433e-56  1.4017632717449369e-57  1.5657144115867259e-58  1.5967090425251866e-59  1.3736366464722398e-60  7.1416545101526057e-62  -6.4740071153076508e-63  -3.0876804144929462e-63  -7.1275163652218120e-64  -1.3470815991430357e-64  -2.3047800957887776e-65  -3.7059623298007962e-66  -5.7007420115353772e-67  -8.4409483558675841e-68  -1.1388090279778076e-68  0.0000000000000000e+00  0.0000000000000000e+00  1.0871692170875932e-23  1.2289764550958080e-24  -3.5375605251725223e-24  -3.5092807590257803e-24  -2.0858206115605468e-24  -9.8040187113891510e-25  -3.7267598909514905e-25  -1.1435672319439197e-25  -2.7037043447962933e-26  -2.9525452811717600e-27  1.4269835438414008e-27  1.1757597444237281e-27  5.4432994288642004e-28  2.0030594553986617e-28  6.1403667699025216e-29  1.5473762984542669e-29  3.1267434878594423e-30  4.8361102764888646e-31  4.7954984127853079e-32  -1.0517853753606621e-33  -2.0094707292536743e-33  -6.5010779865865252e-34  -1.5645368291482622e-34  -3.2569073385019781e-35  -6.1644335737584477e-36  -1.0855156566890597e-36  -1.8012353564781085e-37  -2.8374758959192584e-38  -4.2600724763436549e-39  -6.1014303985780128e-40  -8.3172531054587148e-41  -1.0717438995864381e-41  -1.2862278848344379e-42  -1.3914117946619220e-43  -1.2432893783724584e-44  -6.1033747798161114e-46  8.6152172723151469e-47  3.6919868139861174e-47  8.6166239018022120e-48  1.6641594084187844e-48  2.9097213686772131e-49  4.7680249796361902e-50  7.4468307176617346e-51  1.1188039493308095e-51  1.6254527433504074e-52  2.2902277701710012e-53  3.1330183584416148e-54  4.1597155057241000e-55  5.3492796909301835e-56  6.6343956435151936e-57  7.8734903396872829e-58  8.8113955138351541e-59  9.0254372964506765e-60  7.8533006667139901e-61  4.2987503165940355e-62  -3.0886491622828279e-63  -1.6363047600699378e-63  -3.8362767373147420e-64  -7.2920468215107808e-65  -1.2509551849472001e-65  -2.0137816519082239e-66  -3.0892123081753564e-67  -4.3180511041649854e-68  0.0000000000000000e+00  0.0000000000000000e+00  1.3263159184917392e-22  5.9794224073853663e-23  1.6301721245614401e-24  -1.3812151138756208e-23  -1.1759591103197442e-23  -6.5591970212226717e-24  -2.7842579819709027e-24  -9.8276500991252060e-25  -2.8310511208284268e-25  -5.5953193735082835e-26  -1.9160420078796583e-27  4.6592651736536349e-27  2.9587005088813544e-27  1.2408804526592226e-27  4.0111296090853148e-28  1.0331348260327460e-28  2.1626713288952023e-29  3.7308626720276565e-30  5.2690008390028653e-31  5.6024075804380170e-32  2.2928675230726091e-33  -9.2549910431378747e-34  -3.6863906638660124e-34  -9.2669108780917151e-35  -1.9423750865190863e-35  -3.6563768603167477e-36  -6.3796022679133016e-37  -1.0484811088078076e-37  -1.6374257224945900e-38  -2.4407183779332853e-39  -3.4763755042756447e-40  -4.7217521267103706e-41  -6.0783016675221635e-42  -7.3193297956810247e-43  -8.0150337577282716e-44  -7.4289252149520711e-45  -4.3804873758413933e-46  2.9297941055343207e-47  1.7134357450829203e-47  4.1947479429389721e-48  8.2435757134199044e-49  1.4528177242364912e-49  2.3899033608278542e-50  3.7395504576870844e-51  5.6225875155672456e-52  8.1702091828461207e-53  1.1510239195109747e-53  1.5742458640589812e-54  2.0897964638487973e-55  2.6875914802454391e-56  3.3349094542221424e-57  3.9627553957007938e-58  4.4467194538351712e-59  4.5807820995804861e-60  4.0423118769012533e-61  2.3463776386247266e-62  -1.2124683301133385e-63  -7.6324726213996824e-64  -1.8291810539907792e-64  -3.5049584026047639e-65  -6.0347494577458213e-66  -9.7034549761116637e-67  -1.4099995977762692e-67  0.0000000000000000e+00  0.0000000000000000e+00  1.2136727810437556e-21  7.3062413090704157e-22  2.1079474809997065e-22  -1.7281965941105431e-24  -5.1350294359514853e-23  -3.7930128724968256e-23  -1.8795527605629072e-23  -7.6225466593707609e-24  -2.4685126417208698e-24  -6.0952232501480957e-25  -9.9335476951396643e-26  5.8424904327239319e-27  1.4202503737236979e-26  7.2088859883087743e-27  2.4311361547905213e-27  6.2819542078139343e-28  1.3270491909013346e-28  2.3905571787198715e-29  3.7595579392021703e-30  5.1422068771646230e-31  5.7858014459279929e-32  4.1673194397289757e-33  -2.3655105407501855e-34  -1.8052119145773989e-34  -4.9327752514952573e-35  -1.0549430059656705e-35  -1.9924969635194245e-36  -3.4684696997146975e-37  -5.6756360103179161e-38  -8.8196503505148178e-39  -1.3082484387865478e-39  -1.8556855206750223e-40  -2.5137327819745712e-41  -3.2349407330287398e-42  -3.9095863295203910e-43  -4.3297858512321429e-44  -4.1405367253642794e-45  -2.7750448590356440e-46  6.2765291351392039e-48  7.3231777169003605e-48  1.9078158000712343e-48  3.8295918326791419e-49  6.8138283263961270e-50  1.1262018550014678e-50  1.7663911697455279e-51  2.6588093111321346e-52  3.8651577589634189e-53  5.4456143347352335e-54  7.4474410333797224e-55  9.8862693764334987e-56  1.2717035146198177e-56  1.5790670042898322e-57  1.8791674472387289e-58  2.1150632792118960e-59  2.1924672192215195e-60  1.9637952789219420e-61  1.2073738420183147e-62  -3.9902169409088368e-64  -3.3109785417653801e-64  -8.1568632208136952e-65  -1.5780890287525653e-65  -2.7214030723855543e-66  -4.1562927142792776e-67  0.0000000000000000e+00  0.0000000000000000e+00  9.1432466237229487e-21  6.4629615820571541e-21  2.8036311816866766e-21  6.9388333210202265e-22  -8.0330931005390787e-23  -1.7132184674160039e-22  -1.1340816021101877e-22  -5.3358549065368753e-23  -1.9037648879507250e-23  -5.5324354752237356e-24  -1.2625698949250084e-24  -1.3187436663552168e-25  5.5128925165068556e-26  3.7874210237676259e-26  1.3150530207242750e-26  3.3522463369882352e-27  7.0110942418225244e-28  1.2749305712854904e-28  2.0779576866380116e-29  3.0621930222841563e-30  4.0374581969458977e-31  4.5766062448517775e-32  3.8793704275339768e-33  5.6503913831222715e-35  -7.5955089251467591e-35  -2.3964007485694105e-35  -5.3302772933870367e-36  -1.0199042379345222e-36  -1.7808870770705428e-37  -2.9109054639106185e-38  -4.5110569880103997e-39  -6.6712509559476544e-40  -9.4387064891526930e-41  -1.2766291905364043e-41  -1.6433325468535671e-42  -1.9929345402473608e-43  -2.2289558062274728e-44  -2.1870394886544263e-45  -1.6054765687700300e-46  -8.7929137985546053e-49  2.9418225532258473e-48  8.2921191051467770e-49  1.7059697958472791e-49  3.0684009010614115e-50  5.0989055790763323e-51  8.0195827516481686e-52  1.2087948138671768e-52  1.7583328885883219e-53  2.4778523701865414e-54  3.3889246646493561e-55  4.4991282769838313e-56  5.7892118537782567e-57  7.1940056875797733e-58  8.5749561259915401e-59  9.6816989519604148e-60  1.0099633514373299e-60  9.1800705236166953e-62  5.9493020833264882e-63  -1.0069603294259510e-64  -1.3686507469721761e-64  -3.4836007450183098e-65  -6.7948342770573174e-66  -1.1167460846174296e-66  0.0000000000000000e+00  0.0000000000000000e+00  5.4250080829051460e-20  4.7244668831828278e-20  2.6750826949805702e-20  9.1360058116622153e-21  1.6670032600983114e-21  -3.4118207216085038e-22  -5.7858715681923787e-22  -3.3127151560827187e-22  -1.3379208896558922e-22  -4.5227598031230015e-23  -1.1980847403557223e-23  -1.8834776856037908e-24  8.8350219654063081e-26  1.6048870355901540e-25  5.8641626041806331e-26  1.4804667260537295e-26  3.0723315024108517e-27  5.6286688094682063e-28  9.4032234009839413e-29  1.4499894380010471e-29  2.0660984480545381e-30  2.6935640372218347e-31  3.1125351515549873e-32  2.8999229521449636e-33  1.3364169352117905e-34  -2.7010677957141169e-35  -1.0867111897337775e-35  -2.5483088395172376e-36  -4.9643288601750154e-37  -8.7239496433935120e-38  -1.4282871028220369e-38  -2.2123337620786256e-39  -3.2672644030175662e-40  -4.6160154297942453e-41  -6.2384798878008377e-42  -8.0357070948765285e-43  -9.7774641440528792e-44  -1.1028689749136566e-44  -1.1049989021569457e-45  -8.6674503115367303e-47  -2.1083935833978874e-48  1.1197362344645725e-48  3.4845917725163131e-49  7.3704177418107707e-50  1.3414502950248036e-50  2.2422737813983724e-51  3.5374781769947741e-52  5.3405218817938382e-53  7.7744352140289296e-54  1.0959548762283755e-54  1.4991677874407860e-55  1.9906468060567067e-56  2.5624265366851782e-57  3.1868297650718981e-58  3.8047163779282087e-59  4.3090705417760734e-60  4.5226436442373501e-61  4.1682093969368305e-62  2.8298980076449059e-63  -9.5843525856557796e-66  -5.4595618857189829e-65  -1.4385700356652990e-65  -2.6929710102389728e-66  0.0000000000000000e+00  0.0000000000000000e+00  2.1126006430545617e-19  2.9266654493324707e-19  2.0248338748716990e-19  8.4447459472368534e-20  2.7761093634368497e-20  4.0313896308879097e-21  -2.0375239444987051e-21  -1.7357036690351328e-21  -8.6364359751099241e-22  -3.3946756537381644e-22  -9.7400225374078274e-23  -1.8119718640440269e-23  -1.4000689673114703e-24  3.5947313665684156e-25  1.8222649175793760e-25  4.9377517539584762e-26  1.0706403576261936e-26  2.0518739490242764e-27  3.5985292016155983e-28  5.8538617881293572e-29  8.8785396695895622e-30  1.2533460806734417e-30  1.6296243188596800e-31  1.9021678481404268e-32  1.8625652079563102e-33  1.1643755845355859e-34  -7.3301605499451767e-36  -4.6250396263766378e-36  -1.1618399775672712e-36  -2.3172493679549525e-37  -4.1105633238700528e-38  -6.7533435750264063e-39  -1.0469106269258177e-39  -1.5456856347050800e-40  -2.1826523902873290e-41  -2.9494883943421952e-42  -3.8027884192132151e-43  -4.6411704759787000e-44  -5.2732127221530895e-45  -5.3741501725626244e-46  -4.4294847155874534e-47  -1.6642175149484222e-48  4.0424111009821944e-49  1.4254604549021951e-49  3.1084423427550744e-50  5.7291654136461305e-51  9.6359685062560454e-52  1.5251638223661144e-52  2.3065294121131591e-53  3.3607200594828717e-54  4.7396783783299723e-55  6.4850487532631071e-56  8.6131550627909327e-57  1.1091824467847087e-57  1.3806058413102573e-58  1.6508814961329993e-59  1.8752378921564823e-60  1.9795021397352097e-61  1.8476997377688240e-62  1.3059609499520473e-63  1.0232766067394746e-65  -2.1097776998796510e-65  -5.4935521090182568e-66  0.0000000000000000e+00  0.0000000000000000e+00  -1.2781255073974111e-19  1.3545598108948830e-18  1.1972758217225293e-18  6.6562741243417819e-19  2.8541925386941424e-19  6.6934951633969892e-20  2.9952985169189426e-21  -6.3666653981389147e-21  -5.1332670415119486e-21  -2.3768289716020864e-21  -7.1705377528267826e-22  -1.4800556225324744e-22  -2.0871914374526429e-23  -1.6010398064530799e-24  1.4803626125170250e-25  9.7508743831029789e-26  2.7588788868626225e-26  6.1214821797258232e-27  1.1811448949206032e-27  2.0620962434165535e-28  3.3221468897959483e-29  4.9835788204184514e-30  6.9731946043302460e-31  9.0459087995610766e-32  1.0664900879516867e-32  1.0834534250875951e-33  7.8994322944757642e-35  -6.8451746003716945e-37  -1.8606549274475600e-36  -5.0957334810728224e-37  -1.0441946107660306e-37  -1.8729119088132005e-38  -3.0919436373442734e-39  -4.8025628505183973e-40  -7.0948758891472101e-41  -1.0019784590450158e-41  -1.3544005060342412e-42  -1.7481794531788547e-43  -2.1396171919959853e-44  -2.4461634574786907e-45  -2.5279835814534163e-46  -2.1640289600814260e-47  -1.0220800566386409e-48  1.3772290767778834e-49  5.7014664552046325e-50  1.2850105245763166e-50  2.3996152342799993e-51  4.0617601132478107e-52  6.4505791945455181e-53  9.7731140723125141e-54  1.4253783126497992e-54  2.0112743787846679e-55  2.7527653215482864e-56  3.6571472405572874e-57  4.7116705523719126e-58  5.8693822400893256e-59  7.0288630623254315e-60  8.0060182982584542e-61  8.4957684981951724e-62  8.0212165013775394e-63  5.8677619735253848e-64  1.0092006198610065e-65  -7.4810456028476156e-66  0.0000000000000000e+00  0.0000000000000000e+00  -1.2376088794354084e-17  1.9488267526146552e-18  4.9492011685500549e-18  4.5279348628767449e-18  2.2370512511663183e-18  6.7987695228366015e-19  1.6183822200170273e-19  -5.1972698956546656e-22  -2.8816540880325885e-20  -1.5524543491460478e-20  -4.7385645407625646e-21  -1.0188321280031863e-21  -1.7064594240432976e-22  -2.3198740358784074e-23  -2.3805023013124235e-24  -8.9755372022823973e-26  3.7592330919158985e-26  1.3827421101774649e-26  3.2192521024790317e-27  6.2428037455922429e-28  1.0846608250903284e-28  1.7374381904952890e-29  2.5968286724539574e-30  3.6306001643152671e-31  4.7205050608440556e-32  5.6106923106446808e-33  5.8409239051387383e-34  4.6581602068731849e-35  9.0840341121836114e-37  -7.0790202352029844e-37  -2.1598309426494699e-37  -4.5641503040443784e-38  -8.2900963716069855e-39  -1.3763995162144405e-39  -2.1434216363387484e-40  -3.1701287217580039e-41  -4.4796679511066307e-42  -6.0590097577928522e-43  -7.8300208710061128e-44  -9.6078225083782455e-45  -1.1043011893239135e-45  -1.1544303770217498e-46  -1.0178527818943016e-47  -5.5459472856630538e-49  4.3689861327429609e-50  2.2367487289333537e-50  5.2216724255127222e-51  9.8820879260678370e-52  1.6834954367043692e-52  2.6827056710983368e-53  4.0720767314509486e-54  5.9450713023562453e-55  8.3935071211247155e-56  1.1491922365921024e-56  1.5272203538646238e-57  1.9684598554265294e-58  2.4540178884876988e-59  2.9428624893447714e-60  3.3603940185259115e-61  3.5829377795323603e-62  3.4170278598485500e-63  2.5706756986610811e-64  6.4357513764752352e-66  0.0000000000000000e+00  0.0000000000000000e+00  -1.3230001882095249e-16  -4.8608838066825054e-17  1.9538761974152139e-18  2.4340463307285958e-17  1.4144176891014012e-17  5.9593439866957642e-18  2.0608306633705601e-18  2.4406644738301132e-19  -1.4619888382605118e-19  -8.7371852663052657e-20  -2.5855428475324118e-20  -5.4934126498771268e-21  -9.5571663322215960e-22  -1.4351193382583090e-22  -1.8456734042567315e-23  -1.8908418588817643e-24  -1.0983229027694973e-25  1.2491040154187549e-26  6.2380415308533213e-27  1.5369421862382588e-27  3.0460911966871177e-28  5.3428137690141530e-29  8.5867257277817172e-30  1.2833332338908366e-30  1.7926965503884918e-31  2.3341700494549776e-32  2.7943129993971883e-33  2.9667559868917854e-34  2.5136786298611092e-35  9.2183759159500124e-37  -2.5453694445929332e-37  -8.8938698956447372e-38  -1.9431241082799879e-38  -3.5767268354358428e-39  -5.9755993249805462e-40  -9.3342572653365063e-41  -1.3826606016825051e-41  -1.9555144864140291e-42  -2.6470336600163994e-43  -3.4249585026588574e-44  -4.2123781736077181e-45  -4.8638018417042453e-46  -5.1332468780780482e-47  -4.6330895439070313e-48  -2.7828885889735339e-49  1.2516918060555548e-50  8.6281651414233246e-51  2.0900518076960308e-51  4.0088523950448795e-52  6.8729511753816458e-53  1.0989116909119623e-53  1.6711321993832019e-54  2.4423148553835474e-55  3.4501910037699230e-56  4.7255575996786783e-57  6.2820622797557699e-58  8.1005356270267031e-59  1.0105907137900078e-59  1.2134270546629267e-60  1.3887124127749875e-61  1.4868404059389940e-62  1.4281841462015590e-63  1.0607047038135822e-64  0.0000000000000000e+00  0.0000000000000000e+00  -8.5880942626119300e-16  -7.8664634826709065e-16  -2.0057877333906746e-16  8.0593611211600381e-17  6.9533055656899289e-17  4.6295065886529721e-17  1.8824108776907053e-17  3.0861880209363652e-18  -4.1266424360952958e-19  -3.4443102239885054e-19  -1.0097136977312856e-19  -2.1329838234813424e-20  -3.8201379688878393e-21  -6.1023430568887885e-22  -8.7526446557952559e-23  -1.1158453398926852e-23  -1.2064723922441017e-24  -9.0775302573076721e-26  1.6861950373627654e-27  2.5616928585400752e-27  6.9574668742932268e-28  1.4171714623505002e-28  2.5070824790201593e-29  4.0399210842974856e-30  6.0468456454835658e-31  8.4636001227619609e-32  1.1054970823145445e-32  1.3316243102826857e-33  1.4345189192579964e-34  1.2677656346070780e-35  6.0933489313515932e-37  -8.5887856385418950e-38  -3.5697536794779138e-38  -8.0834623368417725e-39  -1.5086800564330773e-3