<?xml version="1.0"?>
<VTKFile type="UnstructuredGrid"  version="0.1"  >
<UnstructuredGrid>
<Piece  NumberOfPoints="4225" NumberOfCells="8192">
<Points>
<DataArray  type="Float64"  NumberOfComponents="3"  format="ascii">-1 -1 0  -0.96875 -1 0  -0.9375 -1 0  -0.90625 -1 0  -0.875 -1 0  -0.84375 -1 0  -0.8125 -1 0  -0.78125 -1 0  -0.75 -1 0  -0.71875 -1 0  -0.6875 -1 0  -0.65625 -1 0  -0.625 -1 0  -0.59375 -1 0  -0.5625 -1 0  -0.53125 -1 0  -0.5 -1 0  -0.46875 -1 0  -0.4375 -1 0  -0.40625 -1 0  -0.375 -1 0  -0.34375 -1 0  -0.3125 -1 0  -0.28125 -1 0  -0.25 -1 0  -0.21875 -1 0  -0.1875 -1 0  -0.15625 -1 0  -0.125 -1 0  -0.09375 -1 0  -0.0625 -1 0  -0.03125 -1 0  0 -1 0  0.03125 -1 0  0.0625 -1 0  0.09375 -1 0  0.125 -1 0  0.15625 -1 0  0.1875 -1 0  0.21875 -1 0  0.25 -1 0  0.28125 -1 0  0.3125 -1 0  0.34375 -1 0  0.375 -1 0  0.40625 -1 0  0.4375 -1 0  0.46875 -1 0  0.5 -1 0  0.53125 -1 0  0.5625 -1 0  0.59375 -1 0  0.625 -1 0  0.65625 -1 0  0.6875 -1 0  0.71875 -1 0  0.75 -1 0  0.78125 -1 0  0.8125 -1 0  0.84375 -1 0  0.875 -1 0  0.90625 -1 0  0.9375 -1 0  0.96875 -1 0  1 -1 0  -1 -0.96875 0  -0.96875 -0.96875 0  -0.9375 -0.96875 0  -0.90625 -0.96875 0  -0.875 -0.96875 0  -0.84375 -0.96875 0  -0.8125 -0.96875 0  -0.78125 -0.96875 0  -0.75 -0.96875 0  -0.71875 -0.96875 0  -0.6875 -0.96875 0  -0.65625 -0.96875 0  -0.625 -0.96875 0  -0.59375 -0.96875 0  -0.5625 -0.96875 0  -0.53125 -0.96875 0  -0.5 -0.96875 0  -0.46875 -0.96875 0  -0.4375 -0.96875 0  -0.40625 -0.96875 0  -0.375 -0.96875 0  -0.34375 -0.96875 0  -0.3125 -0.96875 0  -0.28125 -0.96875 0  -0.25 -0.96875 0  -0.21875 -0.96875 0  -0.1875 -0.96875 0  -0.15625 -0.96875 0  -0.125 -0.96875 0  -0.09375 -0.96875 0  -0.0625 -0.96875 0  -0.03125 -0.96875 0  0 -0.96875 0  0.03125 -0.96875 0  0.0625 -0.96875 0  0.09375 -0.96875 0  0.125 -0.96875 0  0.15625 -0.96875 0  0.1875 -0.96875 0  0.21875 -0.96875 0  0.25 -0.96875 0  0.28125 -0.96875 0  0.3125 -0.96875 0  0.34375 -0.96875 0  0.375 -0.96875 0  0.40625 -0.96875 0  0.4375 -0.96875 0  0.46875 -0.96875 0  0.5 -0.96875 0  0.53125 -0.96875 0  0.5625 -0.96875 0  0.59375 -0.96875 0  0.625 -0.96875 0  0.65625 -0.96875 0  0.6875 -0.96875 0  0.71875 -0.96875 0  0.75 -0.96875 0  0.78125 -0.96875 0  0.8125 -0.96875 0  0.84375 -0.96875 0  0.875 -0.96875 0  0.90625 -0.96875 0  0.9375 -0.96875 0  0.96875 -0.96875 0  1 -0.96875 0  -1 -0.9375 0  -0.96875 -0.9375 0  -0.9375 -0.9375 0  -0.90625 -0.9375 0  -0.875 -0.9375 0  -0.84375 -0.9375 0  -0.8125 -0.9375 0  -0.78125 -0.9375 0  -0.75 -0.9375 0  -0.71875 -0.9375 0  -0.6875 -0.9375 0  -0.65625 -0.9375 0  -0.625 -0.9375 0  -0.59375 -0.9375 0  -0.5625 -0.9375 0  -0.53125 -0.9375 0  -0.5 -0.9375 0  -0.46875 -0.9375 0  -0.4375 -0.9375 0  -0.40625 -0.9375 0  -0.375 -0.9375 0  -0.34375 -0.9375 0  -0.3125 -0.9375 0  -0.28125 -0.9375 0  -0.25 -0.9375 0  -0.21875 -0.9375 0  -0.1875 -0.9375 0  -0.15625 -0.9375 0  -0.125 -0.9375 0  -0.09375 -0.9375 0  -0.0625 -0.9375 0  -0.03125 -0.9375 0  0 -0.9375 0  0.03125 -0.9375 0  0.0625 -0.9375 0  0.09375 -0.9375 0  0.125 -0.9375 0  0.15625 -0.9375 0  0.1875 -0.9375 0  0.21875 -0.9375 0  0.25 -0.9375 0  0.28125 -0.9375 0  0.3125 -0.9375 0  0.34375 -0.9375 0  0.375 -0.9375 0  0.40625 -0.9375 0  0.4375 -0.9375 0  0.46875 -0.9375 0  0.5 -0.9375 0  0.53125 -0.9375 0  0.5625 -0.9375 0  0.59375 -0.9375 0  0.625 -0.9375 0  0.65625 -0.9375 0  0.6875 -0.9375 0  0.71875 -0.9375 0  0.75 -0.9375 0  0.78125 -0.9375 0  0.8125 -0.9375 0  0.84375 -0.9375 0  0.875 -0.9375 0  0.90625 -0.9375 0  0.9375 -0.9375 0  0.96875 -0.9375 0  1 -0.9375 0  -1 -0.90625 0  -0.96875 -0.90625 0  -0.9375 -0.90625 0  -0.90625 -0.90625 0  -0.875 -0.90625 0  -0.84375 -0.90625 0  -0.8125 -0.90625 0  -0.78125 -0.90625 0  -0.75 -0.90625 0  -0.71875 -0.90625 0  -0.6875 -0.90625 0  -0.65625 -0.90625 0  -0.625 -0.90625 0  -0.59375 -0.90625 0  -0.5625 -0.90625 0  -0.53125 -0.90625 0  -0.5 -0.90625 0  -0.46875 -0.90625 0  -0.4375 -0.90625 0  -0.40625 -0.90625 0  -0.375 -0.90625 0  -0.34375 -0.90625 0  -0.3125 -0.90625 0  -0.28125 -0.90625 0  -0.25 -0.90625 0  -0.21875 -0.90625 0  -0.1875 -0.90625 0  -0.15625 -0.90625 0  -0.125 -0.90625 0  -0.09375 -0.90625 0  -0.0625 -0.90625 0  -0.03125 -0.90625 0  0 -0.90625 0  0.03125 -0.90625 0  0.0625 -0.90625 0  0.09375 -0.90625 0  0.125 -0.90625 0  0.15625 -0.90625 0  0.1875 -0.90625 0  0.21875 -0.90625 0  0.25 -0.90625 0  0.28125 -0.90625 0  0.3125 -0.90625 0  0.34375 -0.90625 0  0.375 -0.90625 0  0.40625 -0.90625 0  0.4375 -0.90625 0  0.46875 -0.90625 0  0.5 -0.90625 0  0.53125 -0.90625 0  0.5625 -0.90625 0  0.59375 -0.90625 0  0.625 -0.90625 0  0.65625 -0.90625 0  0.6875 -0.90625 0  0.71875 -0.90625 0  0.75 -0.90625 0  0.78125 -0.90625 0  0.8125 -0.90625 0  0.84375 -0.90625 0  0.875 -0.90625 0  0.90625 -0.90625 0  0.9375 -0.90625 0  0.96875 -0.90625 0  1 -0.90625 0  -1 -0.875 0  -0.96875 -0.875 0  -0.9375 -0.875 0  -0.90625 -0.875 0  -0.875 -0.875 0  -0.84375 -0.875 0  -0.8125 -0.875 0  -0.78125 -0.875 0  -0.75 -0.875 0  -0.71875 -0.875 0  -0.6875 -0.875 0  -0.65625 -0.875 0  -0.625 -0.875 0  -0.59375 -0.875 0  -0.5625 -0.875 0  -0.53125 -0.875 0  -0.5 -0.875 0  -0.46875 -0.875 0  -0.4375 -0.875 0  -0.40625 -0.875 0  -0.375 -0.875 0  -0.34375 -0.875 0  -0.3125 -0.875 0  -0.28125 -0.875 0  -0.25 -0.875 0  -0.21875 -0.875 0  -0.1875 -0.875 0  -0.15625 -0.875 0  -0.125 -0.875 0  -0.09375 -0.875 0  -0.0625 -0.875 0  -0.03125 -0.875 0  0 -0.875 0  0.03125 -0.875 0  0.0625 -0.875 0  0.09375 -0.875 0  0.125 -0.875 0  0.15625 -0.875 0  0.1875 -0.875 0  0.21875 -0.875 0  0.25 -0.875 0  0.28125 -0.875 0  0.3125 -0.875 0  0.34375 -0.875 0  0.375 -0.875 0  0.40625 -0.875 0  0.4375 -0.875 0  0.46875 -0.875 0  0.5 -0.875 0  0.53125 -0.875 0  0.5625 -0.875 0  0.59375 -0.875 0  0.625 -0.875 0  0.65625 -0.875 0  0.6875 -0.875 0  0.71875 -0.875 0  0.75 -0.875 0  0.78125 -0.875 0  0.8125 -0.875 0  0.84375 -0.875 0  0.875 -0.875 0  0.90625 -0.875 0  0.9375 -0.875 0  0.96875 -0.875 0  1 -0.875 0  -1 -0.84375 0  -0.96875 -0.84375 0  -0.9375 -0.84375 0  -0.90625 -0.84375 0  -0.875 -0.84375 0  -0.84375 -0.84375 0  -0.8125 -0.84375 0  -0.78125 -0.84375 0  -0.75 -0.84375 0  -0.71875 -0.84375 0  -0.6875 -0.84375 0  -0.65625 -0.84375 0  -0.625 -0.84375 0  -0.59375 -0.84375 0  -0.5625 -0.84375 0  -0.53125 -0.84375 0  -0.5 -0.84375 0  -0.46875 -0.84375 0  -0.4375 -0.84375 0  -0.40625 -0.84375 0  -0.375 -0.84375 0  -0.34375 -0.84375 0  -0.3125 -0.84375 0  -0.28125 -0.84375 0  -0.25 -0.84375 0  -0.21875 -0.84375 0  -0.1875 -0.84375 0  -0.15625 -0.84375 0  -0.125 -0.84375 0  -0.09375 -0.84375 0  -0.0625 -0.84375 0  -0.03125 -0.84375 0  0 -0.84375 0  0.03125 -0.84375 0  0.0625 -0.84375 0  0.09375 -0.84375 0  0.125 -0.84375 0  0.15625 -0.84375 0  0.1875 -0.84375 0  0.21875 -0.84375 0  0.25 -0.84375 0  0.28125 -0.84375 0  0.3125 -0.84375 0  0.34375 -0.84375 0  0.375 -0.84375 0  0.40625 -0.84375 0  0.4375 -0.84375 0  0.46875 -0.84375 0  0.5 -0.84375 0  0.53125 -0.84375 0  0.5625 -0.84375 0  0.59375 -0.84375 0  0.625 -0.84375 0  0.65625 -0.84375 0  0.6875 -0.84375 0  0.71875 -0.84375 0  0.75 -0.84375 0  0.78125 -0.84375 0  0.8125 -0.84375 0  0.84375 -0.84375 0  0.875 -0.84375 0  0.90625 -0.84375 0  0.9375 -0.84375 0  0.96875 -0.84375 0  1 -0.84375 0  -1 -0.8125 0  -0.96875 -0.8125 0  -0.9375 -0.8125 0  -0.90625 -0.8125 0  -0.875 -0.8125 0  -0.84375 -0.8125 0  -0.8125 -0.8125 0  -0.78125 -0.8125 0  -0.75 -0.8125 0  -0.71875 -0.8125 0  -0.6875 -0.8125 0  -0.65625 -0.8125 0  -0.625 -0.8125 0  -0.59375 -0.8125 0  -0.5625 -0.8125 0  -0.53125 -0.8125 0  -0.5 -0.8125 0  -0.46875 -0.8125 0  -0.4375 -0.8125 0  -0.40625 -0.8125 0  -0.375 -0.8125 0  -0.34375 -0.8125 0  -0.3125 -0.8125 0  -0.28125 -0.8125 0  -0.25 -0.8125 0  -0.21875 -0.8125 0  -0.1875 -0.8125 0  -0.15625 -0.8125 0  -0.125 -0.8125 0  -0.09375 -0.8125 0  -0.0625 -0.8125 0  -0.03125 -0.8125 0  0 -0.8125 0  0.03125 -0.8125 0  0.0625 -0.8125 0  0.09375 -0.8125 0  0.125 -0.8125 0  0.15625 -0.8125 0  0.1875 -0.8125 0  0.21875 -0.8125 0  0.25 -0.8125 0  0.28125 -0.8125 0  0.3125 -0.8125 0  0.34375 -0.8125 0  0.375 -0.8125 0  0.40625 -0.8125 0  0.4375 -0.8125 0  0.46875 -0.8125 0  0.5 -0.8125 0  0.53125 -0.8125 0  0.5625 -0.8125 0  0.59375 -0.8125 0  0.625 -0.8125 0  0.65625 -0.8125 0  0.6875 -0.8125 0  0.71875 -0.8125 0  0.75 -0.8125 0  0.78125 -0.8125 0  0.8125 -0.8125 0  0.84375 -0.8125 0  0.875 -0.8125 0  0.90625 -0.8125 0  0.9375 -0.8125 0  0.96875 -0.8125 0  1 -0.8125 0  -1 -0.78125 0  -0.96875 -0.78125 0  -0.9375 -0.78125 0  -0.90625 -0.78125 0  -0.875 -0.78125 0  -0.84375 -0.78125 0  -0.8125 -0.78125 0  -0.78125 -0.78125 0  -0.75 -0.78125 0  -0.71875 -0.78125 0  -0.6875 -0.78125 0  -0.65625 -0.78125 0  -0.625 -0.78125 0  -0.59375 -0.78125 0  -0.5625 -0.78125 0  -0.53125 -0.78125 0  -0.5 -0.78125 0  -0.46875 -0.78125 0  -0.4375 -0.78125 0  -0.40625 -0.78125 0  -0.375 -0.78125 0  -0.34375 -0.78125 0  -0.3125 -0.78125 0  -0.28125 -0.78125 0  -0.25 -0.78125 0  -0.21875 -0.78125 0  -0.1875 -0.78125 0  -0.15625 -0.78125 0  -0.125 -0.78125 0  -0.09375 -0.78125 0  -0.0625 -0.78125 0  -0.03125 -0.78125 0  0 -0.78125 0  0.03125 -0.78125 0  0.0625 -0.78125 0  0.09375 -0.78125 0  0.125 -0.78125 0  0.15625 -0.78125 0  0.1875 -0.78125 0  0.21875 -0.78125 0  0.25 -0.78125 0  0.28125 -0.78125 0  0.3125 -0.78125 0  0.34375 -0.78125 0  0.375 -0.78125 0  0.40625 -0.78125 0  0.4375 -0.78125 0  0.46875 -0.78125 0  0.5 -0.78125 0  0.53125 -0.78125 0  0.5625 -0.78125 0  0.59375 -0.78125 0  0.625 -0.78125 0  0.65625 -0.78125 0  0.6875 -0.78125 0  0.71875 -0.78125 0  0.75 -0.78125 0  0.78125 -0.78125 0  0.8125 -0.78125 0  0.84375 -0.78125 0  0.875 -0.78125 0  0.90625 -0.78125 0  0.9375 -0.78125 0  0.96875 -0.78125 0  1 -0.78125 0  -1 -0.75 0  -0.96875 -0.75 0  -0.9375 -0.75 0  -0.90625 -0.75 0  -0.875 -0.75 0  -0.84375 -0.75 0  -0.8125 -0.75 0  -0.78125 -0.75 0  -0.75 -0.75 0  -0.71875 -0.75 0  -0.6875 -0.75 0  -0.65625 -0.75 0  -0.625 -0.75 0  -0.59375 -0.75 0  -0.5625 -0.75 0  -0.53125 -0.75 0  -0.5 -0.75 0  -0.46875 -0.75 0  -0.4375 -0.75 0  -0.40625 -0.75
[...]
<PointData  Scalars="f_7"> 
<DataArray  type="Float64"  Name="f_7"  format="ascii">0.0000000000000000e+00  0.0000000000000000e+00  0.0000000000000000e+00  0.0000000000000000e+00  0.0000000000000000e+00  0.0000000000000000e+00  0.0000000000000000e+00  0.0000000000000000e+00  0.0000000000000000e+00  0.0000000000000000e+00  0.0000000000000000e+00  0.0000000000000000e+00  0.0000000000000000e+00  0.0000000000000000e+00  0.0000000000000000e+00  0.0000000000000000e+00  0.0000000000000000e+00  0.0000000000000000e+00  0.0000000000000000e+00  0.0000000000000000e+00  0.0000000000000000e+00  0.0000000000000000e+00  0.0000000000000000e+00  0.0000000000000000e+00  0.0000000000000000e+00  0.0000000000000000e+00  0.0000000000000000e+00  0.0000000000000000e+00  0.0000000000000000e+00  0.0000000000000000e+00  0.0000000000000000e+00  0.0000000000000000e+00  0.0000000000000000e+00  0.0000000000000000e+00  0.0000000000000000e+00  0.0000000000000000e+00  0.0000000000000000e+00  0.0000000000000000e+00  0.0000000000000000e+00  0.0000000000000000e+00  0.0000000000000000e+00  0.0000000000000000e+00  0.0000000000000000e+00  0.0000000000000000e+00  0.0000000000000000e+00  0.0000000000000000e+00  0.0000000000000000e+00  0.0000000000000000e+00  0.0000000000000000e+00  0.0000000000000000e+00  0.0000000000000000e+00  0.0000000000000000e+00  0.0000000000000000e+00  0.0000000000000000e+00  0.0000000000000000e+00  0.0000000000000000e+00  0.0000000000000000e+00  0.0000000000000000e+00  0.0000000000000000e+00  0.0000000000000000e+00  0.0000000000000000e+00  0.0000000000000000e+00  0.0000000000000000e+00  0.0000000000000000e+00  0.0000000000000000e+00  0.0000000000000000e+00  6.7111440751219434e-28  8.7085820886475878e-28  6.2515577797565291e-28  3.4284845549156320e-28  1.6021047776394053e-28  6.6188544300873325e-29  2.4732421125551210e-29  8.4708002668306861e-30  2.6543826395982873e-30  7.5766982916788700e-31  1.9480089772137047e-31  4.3165945129989335e-32  7.2481464428291251e-33  4.0655625692891875e-34  -3.4889808468379343e-34  -2.1415608619299437e-34  -8.4462311338268227e-35  -2.6943722869677338e-35  -7.3215864568448896e-36  -1.7336148861205971e-36  -3.6438046126313402e-37  -6.9298607700011084e-38  -1.2157976183830071e-38  -2.0027147291945943e-39  -3.1409373908268893e-40  -4.7346326376782014e-41  -6.8975105309881235e-42  -9.7382712533704598e-43  -1.3337063723558999e-43  -1.7707253831282681e-44  -2.2736135870265619e-45  -2.8098595435557264e-46  -3.3133133135396451e-47  -3.6662138756751617e-48  -3.6735782923549043e-49  -3.0280532063810925e-50  -1.2628885983369507e-51  2.3106243004722405e-52  8.6860783700980024e-53  1.9270407851712509e-53  3.6023293529472537e-54  6.1633931157618966e-55  9.9742868009259569e-56  1.5521714921524278e-56  2.3448657998796141e-57  3.4594788156552713e-58  5.0044168319513760e-59  7.1180362935903839e-60  9.9748425390137345e-61  1.3792216477535712e-61  1.8837349584481684e-62  2.5433833599299733e-63  3.3967014816166239e-64  4.4886746145779599e-65  5.8705504869533179e-66  7.5988929769660687e-67  9.7334590386120886e-68  1.2333312636136187e-68  1.5450353729859607e-69  1.9118861837675896e-70  2.3333352811181378e-71  2.7893145215502190e-72  3.0144984348918938e-73  0.0000000000000000e+00  0.0000000000000000e+00  9.0015211000676205e-28  4.1021670964474668e-27  3.7422813611022264e-27  2.3223007466265545e-27  1.1697690820462468e-27  5.0846160657389394e-28  1.9853266692231665e-28  7.0521583070654026e-29  2.2868228830023096e-29  6.8049449125393141e-30  1.8412573359077653e-30  4.3994502602008102e-31  8.8070528509010931e-32  1.2433481473373173e-32  -2.0156676823843063e-34  -1.0260831340601833e-33  -4.8995167151516835e-34  -1.6277728567021908e-34  -4.3847511656361653e-35  -1.0134150644132117e-35  -2.0812318279709039e-36  -3.9013260541629012e-37  -6.8180251921646874e-38  -1.1283802809832626e-38  -1.7873441943790117e-39  -2.7281175734975322e-40  -4.0298296244833014e-41  -5.7761791878859645e-42  -8.0453560975048010e-43  -1.0892601883312294e-43  -1.4322387166956780e-44  -1.8245221240370730e-45  -2.2412171000740783e-46  -2.6319648757242151e-47  -2.9075864647967703e-48  -2.9215998185434945e-49  -2.4447579672770716e-50  -1.1304460960530798e-51  1.5314085464560785e-52  6.2747686488310068e-53  1.4135967763044010e-53  2.6554671650830611e-54  4.5502127744431165e-55  7.3641818457551911e-56  1.1452803476691523e-56  1.7284802119156820e-57  2.5471271636614660e-58  3.6799946997238973e-59  5.2274721637651739e-60  7.3159984032812374e-61  1.0102859369478841e-61  1.3781116614725872e-62  1.8584263951917597e-63  2.4789965823999570e-64  3.2721887670261907e-65  4.2748151717328867e-66  5.5274296176521736e-67  7.0727722943420067e-68  8.9529374272904596e-69  1.1204571739861216e-69  1.3848865518778879e-70  1.6824398651272755e-71  1.8892819155006381e-72  0.0000000000000000e+00  0.0000000000000000e+00  -3.2142049331011007e-26  5.7143068312407464e-27  1.7035356375804060e-26  1.3686640002417121e-26  7.6897464447154693e-27  3.5860534772015672e-27  1.4749585743561715e-27  5.4330297899862695e-28  1.8230913082059562e-28  5.6188611762335603e-29  1.5732341039532268e-29  3.9454543166824007e-30  8.6816470440356459e-31  1.5454243142847314e-31  1.4975832823463661e-32  -3.2507547516849827e-33  -2.3664727886115602e-33  -8.2430778989732900e-34  -2.1762267351104720e-34  -4.8533715230649579e-35  -9.6462547558979768e-36  -1.7677914313827317e-36  -3.0539239759622932e-37  -5.0396230746448826e-38  -8.0037888851543375e-39  -1.2288506704057691e-39  -1.8297041682138082e-40  -2.6483423708683743e-41  -3.7323599628563280e-42  -5.1257151900522231e-43  -6.8586070181816903e-44  -8.9311881325340065e-45  -1.1288729793845433e-45  -1.3785134580473842e-46  -1.6130383212913557e-47  -1.7815969495014603e-48  -1.8011156507339158e-49  -1.5421484219991543e-50  -8.0985465278760982e-52  6.8130026637572462e-53  3.3407967159327719e-53  7.7451875788528759e-54  1.4693334284552665e-54  2.5276346365630855e-55  4.0965096582443649e-56  6.3718293842686001e-57  9.6114024899219489e-58  1.4150734174453472e-58  2.0421565989401249e-59  2.8973216281748489e-60  4.0496476258685506e-61  5.5849402319263074e-62  7.6083721184120387e-63  1.0246964909231734e-63  1.3651561168710598e-64  1.7997749588321135e-65  2.3484948791828607e-66  3.0332501387702098e-67  3.8771134953885840e-68  4.9027128316725551e-69  6.1287150662570003e-70  7.5444512718898191e-71  8.6584562891035636e-72  0.0000000000000000e+00  0.0000000000000000e+00  -5.5953337918788075e-25  -1.8082169698022559e-25  2.7952509913168297e-26  6.5058957901272195e-26  4.5409620239264325e-26  2.3822329125709410e-26  1.0455865342941503e-26  4.0216090658584627e-27  1.4044130568166750e-27  4.4663017054784761e-28  1.2847972655092313e-28  3.3489047512092277e-29  7.8035665312697224e-30  1.5259101045147174e-30  2.1028384200657717e-31  4.3633072544440762e-33  -8.6127529728805517e-33  -3.4437495003927206e-33  -9.1480465529860229e-34  -2.0079349727196690e-34  -3.9369049483902731e-35  -7.1698100499551881e-36  -1.2376921622278619e-36  -2.0463338337590328e-37  -3.2599889794791498e-38  -5.0261831642068303e-39  -7.5258281830802778e-40  -1.0972109030112963e-40  -1.5602768398919968e-41  -2.1663023592078851e-42  -2.9374298820761286e-43  -3.8881897549556223e-44  -5.0172825770762987e-45  -6.2951319658805850e-46  -7.6454648403635958e-47  -8.9187614964978428e-48  -9.8549838559667824e-49  -1.0032212546962046e-49  -8.7967324289662988e-51  -5.1690373038205780e-52  2.2807915202651028e-53  1.5596148107728957e-53  3.7644807362468591e-54  7.2388660719318175e-55  1.2522462230693925e-55  2.0341015375654336e-56  3.1658755597870196e-57  4.7742095525085965e-58  7.0235808842292663e-59  1.0125247895934113e-59  1.4347524077144123e-60  2.0027256418920934e-61  2.7582182750903409e-62  3.7523540993643085e-63  5.0467861080820812e-64  6.7146237350200084e-65  8.8408488852495189e-66  1.1521837776854841e-66  1.4863431009595346e-67  1.8976637374374353e-68  2.3966766249427035e-69  2.9843643117193899e-70  3.4803270791072152e-71  0.0000000000000000e+00  0.0000000000000000e+00  -6.7591797659371052e-24  -3.1676233436126865e-24  -6.4565872391224365e-25  1.2907734889428603e-25  2.2175803191959864e-25  1.4517765495038339e-25  6.9638953944990274e-26  2.8560976827758125e-26  1.0467041648076021e-26  3.4245010369541923e-27  1.0114725945528919e-27  2.7267025988581092e-28  6.5625184973293869e-29  1.3352009743219955e-29  2.1114973652065171e-30  2.0785430326297846e-31  -7.6571630120481886e-33  -9.7544068567121327e-33  -2.9980704080602708e-33  -6.9424656704182024e-34  -1.4067119478222400e-34  -2.6250146833298415e-35  -4.6108378542072689e-36  -7.7143654433067223e-37  -1.2397383412550162e-37  -1.9259245916599544e-38  -2.9054477294655394e-39  -4.2696035098327997e-40  -6.1241474769459944e-41  -8.5852938407096058e-42  -1.1771335010318226e-42  -1.5787475895201348e-43  -2.0700551052554909e-44  -2.6499079945058623e-45  -3.3033077457041005e-46  -3.9926627389598269e-47  -4.6453504059968832e-48  -5.1362653594577552e-49  -5.2637341616190213e-50  -4.7168707845187131e-51  -3.0319738218876709e-52  4.6506455578021314e-54  6.7339952008543739e-54  1.7117325927606152e-54  3.3464163701461754e-55  5.8286308373723965e-56  9.4952678504409708e-57  1.4792839849379553e-57  2.2306467416355554e-58  3.2794472154896561e-59  4.7228910428901721e-60  6.6842032018636210e-61  9.3178063617198688e-62  1.2814880533029684e-62  1.7409016051549791e-63  2.3381472217255337e-64  3.1065268260206151e-65  4.0846931143038426e-66  5.3164151424605553e-67  6.8496415070863796e-68  8.7334519201415894e-69  1.0987659837805476e-69  1.2982632428046217e-70  0.0000000000000000e+00  0.0000000000000000e+00  -6.9455268522274210e-23  -3.7077841470766057e-23  -1.2167930990508976e-23  -2.1595475496021431e-24  6.1370193407694346e-25  7.4321226931130828e-25  4.2452870369563611e-25  1.9408235273826248e-25  7.5014013981541717e-26  2.5263848764538903e-26  7.7158386208307752e-27  2.1428948809229661e-27  5.2223729214985997e-28  1.0742146819967266e-28  1.8131596702971924e-29  2.4217511626047487e-30  2.2457222307511771e-31  1.9004009421970314e-33  -5.5896002491321992e-33  -1.8197782630956034e-33  -4.2480813969534592e-34  -8.5391809130134606e-35  -1.5651402932119187e-35  -2.6898501005911216e-36  -4.4061979209653515e-37  -6.9485235013350998e-38  -1.0614223916208508e-38  -1.5769289464444770e-39  -2.2850897717647974e-40  -3.2361859172659194e-41  -4.4850597798025234e-42  -6.0869365074598052e-43  -8.0900520648694033e-44  -1.0523709352984495e-44  -1.3379910560451337e-45  -1.6585955017229605e-46  -1.9964501677901087e-47  -2.3176793077911934e-48  -2.5643726823662098e-49  -2.6437841898478895e-50  -2.4137295282231919e-51  -1.6630989339196062e-52  -8.6198754281822687e-55  2.7506252726288007e-54  7.4519351702766982e-55  1.4847857718514145e-55  2.6062832650297721e-56  4.2601032859556515e-57  6.6451152352430014e-58  1.0021318104430938e-58  1.4724938561328358e-59  2.1186084304410665e-60  2.9948931702472474e-61  4.1694171580618541e-62  5.7263039691356156e-63  7.7681662590526442e-64  1.0418358120949280e-64  1.3822707395217185e-65  1.8150210973659641e-66  2.3591798954870075e-67  3.0352594175692615e-68  3.8552365590575195e-69  4.6072989260854436e-70  0.0000000000000000e+00  0.0000000000000000e+00  -6.3227487709475372e-22  -3.7429483513382408e-22  -1.5049460253921889e-22  -4.0443214567916887e-23  -4.6934698686437444e-24  2.2342743628303187e-24  2.2854449899947642e-24  1.2419181663329550e-24  5.0809604039068928e-25  1.7945050987109249e-25  5.7518874123675032e-26  1.6293254925233551e-26  3.9284585284656659e-27  7.9585938563539219e-28  1.3652969183367848e-28  2.0102434591437907e-29  2.5348894660806428e-30  2.5679926468913276e-31  1.4256407623937834e-32  -2.0253987768070462e-33  -9.4725084634405985e-34  -2.3325547732271914e-34  -4.7035393694901416e-35  -8.5487105015241648e-36  -1.4534091062871458e-36  -2.3534000741957376e-37  -3.6668725889266230e-38  -5.5346466716763796e-39  -8.1292951944564755e-40  -1.1655303758650014e-40  -1.6345170843566641e-41  -2.2449416319354429e-42  -3.0217191756814392e-43  -3.9862873531985222e-44  -5.1512172704954522e-45  -6.5119054951959429e-46  -8.0342593676529897e-47  -9.6369911809253885e-48  -1.1166659890021342e-48  -1.2363026393020654e-49  -1.2811725990494775e-50  -1.1880606485008085e-51  -8.6351921858077501e-53  -1.7276889023199520e-54  1.0747107416806307e-54  3.1436714689153439e-55  6.3965570428172010e-56  1.1322936859734352e-56  1.8576000048011240e-57  2.9017228994958325e-58  4.3770324783478626e-59  6.4285284693649602e-60  9.2413159951540258e-61  1.3049135319568029e-61  1.8143822255653043e-62  2.4885407009366427e-63  3.3712307236614979e-64  4.5150704157503390e-65  5.9821651691962118e-66  7.8443303140084183e-67  1.0181380009299737e-67  1.3049404425706909e-68  1.5756486660634293e-69  0.0000000000000000e+00  0.0000000000000000e+00  -5.2354933551037677e-21  -3.4764083904348395e-21  -1.5339412511439530e-21  -4.8595715370796755e-22  -1.1819316600747303e-22  -1.1094189173618360e-23  9.5759118191503964e-24  7.0147698952383653e-24  3.1946326423740168e-24  1.2469378630232374e-24  4.2135473094393467e-25  1.1828437862231464e-25  2.7342554011721092e-26  5.3058595433451163e-27  8.9110708604033161e-28  1.3321234669306625e-28  1.7962799072188566e-29  2.1596365241792038e-30  2.1937353260818040e-31  1.5350874588356884e-32  -3.6541559818490228e-34  -4.3413668882893366e-34  -1.1632000161189552e-34  -2.3986198951294648e-35  -4.3768933650731652e-36  -7.4117656308539209e-37  -1.1913969404646633e-37  -1.8409317580838008e-38  -2.7551905664433074e-39  -4.0132129995388215e-40  -5.7076223285536766e-41  -7.9428897402342728e-42  -1.0830757085383494e-42  -1.4481342176474541e-43  -1.8987952630853891e-44  -2.4403041123507509e-45  -3.0701859211673361e-46  -3.7729017273328745e-47  -4.5121643975141702e-48  -5.2201369948541309e-49  -5.7825447226228339e-50  -6.0184539014049784e-51  -5.6531449087410122e-52  -4.2821723366208981e-53  -1.3243337648238198e-54  4.0391789523833989e-55  1.2942660357038955e-55  2.6934484802206176e-56  4.8100507708655297e-57  7.9216696525313489e-58  1.2393555021150172e-58  1.8701065098609888e-59  2.7456292397759332e-60  3.9439058987299464e-61  5.5632199539039814e-62  7.7260595844555856e-63  1.0583272459947553e-63  1.4318243338719717e-64  1.9150709255989497e-65  2.5339476664463902e-66  3.3179576951918661e-67  4.2903568187923142e-68  5.2307422067445024e-69  0.0000000000000000e+00  0.0000000000000000e+00  -3.9762369468324739e-20  -2.9632386810342800e-20  -1.3842525564527246e-20  -5.0836100886133735e-21  -1.5397224285076729e-21  -2.8740460273989570e-22  2.6731310553777735e-24  2.9496239542940149e-23  1.8921747505036614e-23  8.6383707753102436e-24  2.9669954620873107e-24  7.8861472828187852e-25  1.6941324141323296e-25  3.0857529862956434e-26  4.9796408787920910e-27  7.3497151575318327e-28  1.0069419912918430e-28  1.2802213146715220e-29  1.4904333040587855e-30  1.5283362560292036e-31  1.2123859044886735e-32  2.5522794928582268e-34  -1.7647498728128416e-34  -5.4364269831998517e-35  -1.1570941586112002e-35  -2.1273381606671541e-36  -3.6011374519918731e-37  -5.7677178021290094e-38  -8.8653308608345997e-39  -1.3187696393127479e-39  -1.9087916845968683e-40  -2.6977168778851667e-41  -3.7315387977184961e-42  -5.0589889503332474e-43  -6.7275944547152829e-44  -8.7770942652509619e-45  -1.1229050293819321e-45  -1.4071130870446829e-46  -1.7234162228662473e-47  -2.0559480638523626e-48  -2.3753306646356704e-49  -2.6323961470633450e-50  -2.7496813095203821e-51  -2.6100679882756494e-52  -2.0417920552608339e-53  -7.9887645160758060e-55  1.4641267658248983e-55  5.2243794986239978e-56  1.1131468909121175e-56  2.0058244710235980e-57  3.3163564215160037e-58  5.1968763765370111e-59  7.8449574105006332e-60  1.1514487583974175e-60  1.6528303073987129e-61  2.3292536661186412e-62  3.2312452450592754e-63  4.4209250379737716e-64  5.9736882990497789e-65  7.9796898708665075e-66  1.0543782294806751e-66  1.3755484897372898e-67  1.6928609485863398e-68  0.0000000000000000e+00  0.0000000000000000e+00  -2.7131525692261500e-19  -2.2956215581668430e-19  -1.1542410601341356e-19  -4.8361017756588106e-20  -1.5794906006996805e-20  -3.7398039127969303e-21  -6.3378549093635510e-22  3.7859748983362226e-23  1.1052378115083751e-22  5.7774138961520507e-23  1.8852447853178297e-23  4.5611681158310106e-24  8.9627159970582199e-25  1.5307445267551965e-25  2.3876806364693413e-26  3.4977277836177704e-27  4.8590492253108750e-28  6.4026383945655082e-29  7.9575150886658218e-30  9.1861774115139871e-31  9.5012300426507321e-32  7.9916970082053382e-33  3.3253417334724552e-34  -6.4263417209348645e-35  -2.4013527388830110e-35  -5.3221407817665863e-36  -9.9086749702280293e-37  -1.6817639399009687e-37  -2.6891408957983048e-38  -4.1187817439303385e-39  -6.1001751836285980e-40  -8.7875632583221366e-41  -1.2359123239339066e-41  -1.7012860111128321e-42  -2.2957246903636061e-43  -3.0393996172186458e-44  -3.9489513106168790e-45  -5.0330554287656843e-46  -6.2858048238376722e-47  -7.6770878790112369e-48  -9.1389131344573669e-49  -1.0546378367664032e-49  -1.1691638200682908e-50  -1.2248774625212739e-51  -1.1726979099376849e-52  -9.4089234708570957e-54  -4.2705729156877971e-55  5.1220294583998026e-56  2.0744225367133994e-56  4.5278379202973008e-57  8.2320254469846324e-58  1.3663317039128376e-58  2.1445711836115443e-59  3.2387956430450233e-60  4.7527329944649435e-61  6.8180398583796180e-62  9.6000534379438346e-63  1.3304123654384809e-63  1.8182309215687450e-64  2.4539926656761751e-65  3.2737960678631057e-66  4.3103652440790221e-67  5.3546697931232552e-68  0.0000000000000000e+00  0.0000000000000000e+00  -1.6440009180629186e-18  -1.5541438217685363e-18  -8.9103855935110287e-19  -4.1895639838067634e-19  -1.4410784925973386e-19  -4.1510989903031380e-20  -9.9393235811279277e-21  -8.5329099725673781e-22  5.9436649765429946e-22  3.3278976390088785e-22  9.8785001424319803e-23  2.1545488304439211e-23  3.9247107259875970e-24  6.4620543500233705e-25  1.0033390498779179e-25  1.4884508200440985e-26  2.1109333695068481e-27  2.8588463708660490e-28  3.6882773291727531e-29  4.5044369093283903e-30  5.1418287809576575e-31  5.3359338933285078e-32  4.6725386103964031e-33  2.5248331690324116e-34  -2.0049242733358543e-35  -1.0152068492066267e-35  -2.3587160648365846e-36  -4.4536016501219063e-37  -7.5897025576250279e-38  -1.2135167570405840e-38  -1.8547519937231285e-39  -2.7383242256495665e-40  -3.9302203044783339e-41  -5.5062704323132757e-42  -7.5502059442303751e-43  -1.0149542549468281e-43  -1.3388262940654495e-44  -1.7334865937476242e-45  -2.2023832099271898e-46  -2.7428008208135050e-47  -3.3418751672600439e-48  -3.9709702170537048e-49  -4.5778796940335685e-50  -5.0761795648073783e-51  -5.3309053862734095e-52  -5.1395349154182242e-53  -4.2070242410187091e-54  -2.1133957242165490e-55  1.7278878321080462e-56  8.1228124882850597e-57  1.8163303331794383e-57  3.3309903330151347e-58  5.5493396993294992e-59  8.7238166595167975e-60  1.3180987477235100e-60  1.9338951260132730e-61  2.7727475278689195e-62  3.9010765281764239e-63  5.4012460305802393e-64  7.3741618288785218e-65  9.9408126900471977e-66  1.3216229217332942e-66  1.6577219906621702e-67  0.0000000000000000e+00  0.0000000000000000e+00  -7.1015264922636678e-18  -7.8815377937102917e-18  -6.4568924866038373e-18  -3.3247756663498850e-18  -1.2234011781078056e-18  -4.1453369932343339e-19  -1.0905995543692700e-19  -1.4174469827088168e-20  1.7622154419980728e-21  1.3523447335957998e-21  3.8033623836302622e-22  7.8354670765260971e-23  1.4083803737081270e-23  2.3728011680232183e-24  3.8038611323443027e-25  5.7895832899158511e-26  8.3809182969229240e-27  1.1593780719391244e-27  1.5366428783636442e-28  1.9497633947767578e-29  2.3567992086698433e-30  2.6811277124920152e-31  2.7958962895244430e-32  2.5093674133094618e-33  1.5455152479551581e-34  -4.8677616040224283e-36  -4.1311697144056134e-36  -1.0120811489667499e-36  -1.9418007175034288e-37  -3.3262265777820742e-38  -5.3222134341874233e-39  -8.1240692756976092e-40  -1.1966781213503218e-40  -1.7127189764427766e-41  -2.3921619882392186e-42  -3.269