<?xml version="1.0"?>
<VTKFile type="UnstructuredGrid"  version="0.1"  >
<UnstructuredGrid>
<Piece  NumberOfPoints="4225" NumberOfCells="8192">
<Points>
<DataArray  type="Float64"  NumberOfComponents="3"  format="ascii">-1 -1 0  -0.96875 -1 0  -0.9375 -1 0  -0.90625 -1 0  -0.875 -1 0  -0.84375 -1 0  -0.8125 -1 0  -0.78125 -1 0  -0.75 -1 0  -0.71875 -1 0  -0.6875 -1 0  -0.65625 -1 0  -0.625 -1 0  -0.59375 -1 0  -0.5625 -1 0  -0.53125 -1 0  -0.5 -1 0  -0.46875 -1 0  -0.4375 -1 0  -0.40625 -1 0  -0.375 -1 0  -0.34375 -1 0  -0.3125 -1 0  -0.28125 -1 0  -0.25 -1 0  -0.21875 -1 0  -0.1875 -1 0  -0.15625 -1 0  -0.125 -1 0  -0.09375 -1 0  -0.0625 -1 0  -0.03125 -1 0  0 -1 0  0.03125 -1 0  0.0625 -1 0  0.09375 -1 0  0.125 -1 0  0.15625 -1 0  0.1875 -1 0  0.21875 -1 0  0.25 -1 0  0.28125 -1 0  0.3125 -1 0  0.34375 -1 0  0.375 -1 0  0.40625 -1 0  0.4375 -1 0  0.46875 -1 0  0.5 -1 0  0.53125 -1 0  0.5625 -1 0  0.59375 -1 0  0.625 -1 0  0.65625 -1 0  0.6875 -1 0  0.71875 -1 0  0.75 -1 0  0.78125 -1 0  0.8125 -1 0  0.84375 -1 0  0.875 -1 0  0.90625 -1 0  0.9375 -1 0  0.96875 -1 0  1 -1 0  -1 -0.96875 0  -0.96875 -0.96875 0  -0.9375 -0.96875 0  -0.90625 -0.96875 0  -0.875 -0.96875 0  -0.84375 -0.96875 0  -0.8125 -0.96875 0  -0.78125 -0.96875 0  -0.75 -0.96875 0  -0.71875 -0.96875 0  -0.6875 -0.96875 0  -0.65625 -0.96875 0  -0.625 -0.96875 0  -0.59375 -0.96875 0  -0.5625 -0.96875 0  -0.53125 -0.96875 0  -0.5 -0.96875 0  -0.46875 -0.96875 0  -0.4375 -0.96875 0  -0.40625 -0.96875 0  -0.375 -0.96875 0  -0.34375 -0.96875 0  -0.3125 -0.96875 0  -0.28125 -0.96875 0  -0.25 -0.96875 0  -0.21875 -0.96875 0  -0.1875 -0.96875 0  -0.15625 -0.96875 0  -0.125 -0.96875 0  -0.09375 -0.96875 0  -0.0625 -0.96875 0  -0.03125 -0.96875 0  0 -0.96875 0  0.03125 -0.96875 0  0.0625 -0.96875 0  0.09375 -0.96875 0  0.125 -0.96875 0  0.15625 -0.96875 0  0.1875 -0.96875 0  0.21875 -0.96875 0  0.25 -0.96875 0  0.28125 -0.96875 0  0.3125 -0.96875 0  0.34375 -0.96875 0  0.375 -0.96875 0  0.40625 -0.96875 0  0.4375 -0.96875 0  0.46875 -0.96875 0  0.5 -0.96875 0  0.53125 -0.96875 0  0.5625 -0.96875 0  0.59375 -0.96875 0  0.625 -0.96875 0  0.65625 -0.96875 0  0.6875 -0.96875 0  0.71875 -0.96875 0  0.75 -0.96875 0  0.78125 -0.96875 0  0.8125 -0.96875 0  0.84375 -0.96875 0  0.875 -0.96875 0  0.90625 -0.96875 0  0.9375 -0.96875 0  0.96875 -0.96875 0  1 -0.96875 0  -1 -0.9375 0  -0.96875 -0.9375 0  -0.9375 -0.9375 0  -0.90625 -0.9375 0  -0.875 -0.9375 0  -0.84375 -0.9375 0  -0.8125 -0.9375 0  -0.78125 -0.9375 0  -0.75 -0.9375 0  -0.71875 -0.9375 0  -0.6875 -0.9375 0  -0.65625 -0.9375 0  -0.625 -0.9375 0  -0.59375 -0.9375 0  -0.5625 -0.9375 0  -0.53125 -0.9375 0  -0.5 -0.9375 0  -0.46875 -0.9375 0  -0.4375 -0.9375 0  -0.40625 -0.9375 0  -0.375 -0.9375 0  -0.34375 -0.9375 0  -0.3125 -0.9375 0  -0.28125 -0.9375 0  -0.25 -0.9375 0  -0.21875 -0.9375 0  -0.1875 -0.9375 0  -0.15625 -0.9375 0  -0.125 -0.9375 0  -0.09375 -0.9375 0  -0.0625 -0.9375 0  -0.03125 -0.9375 0  0 -0.9375 0  0.03125 -0.9375 0  0.0625 -0.9375 0  0.09375 -0.9375 0  0.125 -0.9375 0  0.15625 -0.9375 0  0.1875 -0.9375 0  0.21875 -0.9375 0  0.25 -0.9375 0  0.28125 -0.9375 0  0.3125 -0.9375 0  0.34375 -0.9375 0  0.375 -0.9375 0  0.40625 -0.9375 0  0.4375 -0.9375 0  0.46875 -0.9375 0  0.5 -0.9375 0  0.53125 -0.9375 0  0.5625 -0.9375 0  0.59375 -0.9375 0  0.625 -0.9375 0  0.65625 -0.9375 0  0.6875 -0.9375 0  0.71875 -0.9375 0  0.75 -0.9375 0  0.78125 -0.9375 0  0.8125 -0.9375 0  0.84375 -0.9375 0  0.875 -0.9375 0  0.90625 -0.9375 0  0.9375 -0.9375 0  0.96875 -0.9375 0  1 -0.9375 0  -1 -0.90625 0  -0.96875 -0.90625 0  -0.9375 -0.90625 0  -0.90625 -0.90625 0  -0.875 -0.90625 0  -0.84375 -0.90625 0  -0.8125 -0.90625 0  -0.78125 -0.90625 0  -0.75 -0.90625 0  -0.71875 -0.90625 0  -0.6875 -0.90625 0  -0.65625 -0.90625 0  -0.625 -0.90625 0  -0.59375 -0.90625 0  -0.5625 -0.90625 0  -0.53125 -0.90625 0  -0.5 -0.90625 0  -0.46875 -0.90625 0  -0.4375 -0.90625 0  -0.40625 -0.90625 0  -0.375 -0.90625 0  -0.34375 -0.90625 0  -0.3125 -0.90625 0  -0.28125 -0.90625 0  -0.25 -0.90625 0  -0.21875 -0.90625 0  -0.1875 -0.90625 0  -0.15625 -0.90625 0  -0.125 -0.90625 0  -0.09375 -0.90625 0  -0.0625 -0.90625 0  -0.03125 -0.90625 0  0 -0.90625 0  0.03125 -0.90625 0  0.0625 -0.90625 0  0.09375 -0.90625 0  0.125 -0.90625 0  0.15625 -0.90625 0  0.1875 -0.90625 0  0.21875 -0.90625 0  0.25 -0.90625 0  0.28125 -0.90625 0  0.3125 -0.90625 0  0.34375 -0.90625 0  0.375 -0.90625 0  0.40625 -0.90625 0  0.4375 -0.90625 0  0.46875 -0.90625 0  0.5 -0.90625 0  0.53125 -0.90625 0  0.5625 -0.90625 0  0.59375 -0.90625 0  0.625 -0.90625 0  0.65625 -0.90625 0  0.6875 -0.90625 0  0.71875 -0.90625 0  0.75 -0.90625 0  0.78125 -0.90625 0  0.8125 -0.90625 0  0.84375 -0.90625 0  0.875 -0.90625 0  0.90625 -0.90625 0  0.9375 -0.90625 0  0.96875 -0.90625 0  1 -0.90625 0  -1 -0.875 0  -0.96875 -0.875 0  -0.9375 -0.875 0  -0.90625 -0.875 0  -0.875 -0.875 0  -0.84375 -0.875 0  -0.8125 -0.875 0  -0.78125 -0.875 0  -0.75 -0.875 0  -0.71875 -0.875 0  -0.6875 -0.875 0  -0.65625 -0.875 0  -0.625 -0.875 0  -0.59375 -0.875 0  -0.5625 -0.875 0  -0.53125 -0.875 0  -0.5 -0.875 0  -0.46875 -0.875 0  -0.4375 -0.875 0  -0.40625 -0.875 0  -0.375 -0.875 0  -0.34375 -0.875 0  -0.3125 -0.875 0  -0.28125 -0.875 0  -0.25 -0.875 0  -0.21875 -0.875 0  -0.1875 -0.875 0  -0.15625 -0.875 0  -0.125 -0.875 0  -0.09375 -0.875 0  -0.0625 -0.875 0  -0.03125 -0.875 0  0 -0.875 0  0.03125 -0.875 0  0.0625 -0.875 0  0.09375 -0.875 0  0.125 -0.875 0  0.15625 -0.875 0  0.1875 -0.875 0  0.21875 -0.875 0  0.25 -0.875 0  0.28125 -0.875 0  0.3125 -0.875 0  0.34375 -0.875 0  0.375 -0.875 0  0.40625 -0.875 0  0.4375 -0.875 0  0.46875 -0.875 0  0.5 -0.875 0  0.53125 -0.875 0  0.5625 -0.875 0  0.59375 -0.875 0  0.625 -0.875 0  0.65625 -0.875 0  0.6875 -0.875 0  0.71875 -0.875 0  0.75 -0.875 0  0.78125 -0.875 0  0.8125 -0.875 0  0.84375 -0.875 0  0.875 -0.875 0  0.90625 -0.875 0  0.9375 -0.875 0  0.96875 -0.875 0  1 -0.875 0  -1 -0.84375 0  -0.96875 -0.84375 0  -0.9375 -0.84375 0  -0.90625 -0.84375 0  -0.875 -0.84375 0  -0.84375 -0.84375 0  -0.8125 -0.84375 0  -0.78125 -0.84375 0  -0.75 -0.84375 0  -0.71875 -0.84375 0  -0.6875 -0.84375 0  -0.65625 -0.84375 0  -0.625 -0.84375 0  -0.59375 -0.84375 0  -0.5625 -0.84375 0  -0.53125 -0.84375 0  -0.5 -0.84375 0  -0.46875 -0.84375 0  -0.4375 -0.84375 0  -0.40625 -0.84375 0  -0.375 -0.84375 0  -0.34375 -0.84375 0  -0.3125 -0.84375 0  -0.28125 -0.84375 0  -0.25 -0.84375 0  -0.21875 -0.84375 0  -0.1875 -0.84375 0  -0.15625 -0.84375 0  -0.125 -0.84375 0  -0.09375 -0.84375 0  -0.0625 -0.84375 0  -0.03125 -0.84375 0  0 -0.84375 0  0.03125 -0.84375 0  0.0625 -0.84375 0  0.09375 -0.84375 0  0.125 -0.84375 0  0.15625 -0.84375 0  0.1875 -0.84375 0  0.21875 -0.84375 0  0.25 -0.84375 0  0.28125 -0.84375 0  0.3125 -0.84375 0  0.34375 -0.84375 0  0.375 -0.84375 0  0.40625 -0.84375 0  0.4375 -0.84375 0  0.46875 -0.84375 0  0.5 -0.84375 0  0.53125 -0.84375 0  0.5625 -0.84375 0  0.59375 -0.84375 0  0.625 -0.84375 0  0.65625 -0.84375 0  0.6875 -0.84375 0  0.71875 -0.84375 0  0.75 -0.84375 0  0.78125 -0.84375 0  0.8125 -0.84375 0  0.84375 -0.84375 0  0.875 -0.84375 0  0.90625 -0.84375 0  0.9375 -0.84375 0  0.96875 -0.84375 0  1 -0.84375 0  -1 -0.8125 0  -0.96875 -0.8125 0  -0.9375 -0.8125 0  -0.90625 -0.8125 0  -0.875 -0.8125 0  -0.84375 -0.8125 0  -0.8125 -0.8125 0  -0.78125 -0.8125 0  -0.75 -0.8125 0  -0.71875 -0.8125 0  -0.6875 -0.8125 0  -0.65625 -0.8125 0  -0.625 -0.8125 0  -0.59375 -0.8125 0  -0.5625 -0.8125 0  -0.53125 -0.8125 0  -0.5 -0.8125 0  -0.46875 -0.8125 0  -0.4375 -0.8125 0  -0.40625 -0.8125 0  -0.375 -0.8125 0  -0.34375 -0.8125 0  -0.3125 -0.8125 0  -0.28125 -0.8125 0  -0.25 -0.8125 0  -0.21875 -0.8125 0  -0.1875 -0.8125 0  -0.15625 -0.8125 0  -0.125 -0.8125 0  -0.09375 -0.8125 0  -0.0625 -0.8125 0  -0.03125 -0.8125 0  0 -0.8125 0  0.03125 -0.8125 0  0.0625 -0.8125 0  0.09375 -0.8125 0  0.125 -0.8125 0  0.15625 -0.8125 0  0.1875 -0.8125 0  0.21875 -0.8125 0  0.25 -0.8125 0  0.28125 -0.8125 0  0.3125 -0.8125 0  0.34375 -0.8125 0  0.375 -0.8125 0  0.40625 -0.8125 0  0.4375 -0.8125 0  0.46875 -0.8125 0  0.5 -0.8125 0  0.53125 -0.8125 0  0.5625 -0.8125 0  0.59375 -0.8125 0  0.625 -0.8125 0  0.65625 -0.8125 0  0.6875 -0.8125 0  0.71875 -0.8125 0  0.75 -0.8125 0  0.78125 -0.8125 0  0.8125 -0.8125 0  0.84375 -0.8125 0  0.875 -0.8125 0  0.90625 -0.8125 0  0.9375 -0.8125 0  0.96875 -0.8125 0  1 -0.8125 0  -1 -0.78125 0  -0.96875 -0.78125 0  -0.9375 -0.78125 0  -0.90625 -0.78125 0  -0.875 -0.78125 0  -0.84375 -0.78125 0  -0.8125 -0.78125 0  -0.78125 -0.78125 0  -0.75 -0.78125 0  -0.71875 -0.78125 0  -0.6875 -0.78125 0  -0.65625 -0.78125 0  -0.625 -0.78125 0  -0.59375 -0.78125 0  -0.5625 -0.78125 0  -0.53125 -0.78125 0  -0.5 -0.78125 0  -0.46875 -0.78125 0  -0.4375 -0.78125 0  -0.40625 -0.78125 0  -0.375 -0.78125 0  -0.34375 -0.78125 0  -0.3125 -0.78125 0  -0.28125 -0.78125 0  -0.25 -0.78125 0  -0.21875 -0.78125 0  -0.1875 -0.78125 0  -0.15625 -0.78125 0  -0.125 -0.78125 0  -0.09375 -0.78125 0  -0.0625 -0.78125 0  -0.03125 -0.78125 0  0 -0.78125 0  0.03125 -0.78125 0  0.0625 -0.78125 0  0.09375 -0.78125 0  0.125 -0.78125 0  0.15625 -0.78125 0  0.1875 -0.78125 0  0.21875 -0.78125 0  0.25 -0.78125 0  0.28125 -0.78125 0  0.3125 -0.78125 0  0.34375 -0.78125 0  0.375 -0.78125 0  0.40625 -0.78125 0  0.4375 -0.78125 0  0.46875 -0.78125 0  0.5 -0.78125 0  0.53125 -0.78125 0  0.5625 -0.78125 0  0.59375 -0.78125 0  0.625 -0.78125 0  0.65625 -0.78125 0  0.6875 -0.78125 0  0.71875 -0.78125 0  0.75 -0.78125 0  0.78125 -0.78125 0  0.8125 -0.78125 0  0.84375 -0.78125 0  0.875 -0.78125 0  0.90625 -0.78125 0  0.9375 -0.78125 0  0.96875 -0.78125 0  1 -0.78125 0  -1 -0.75 0  -0.96875 -0.75 0  -0.9375 -0.75 0  -0.90625 -0.75 0  -0.875 -0.75 0  -0.84375 -0.75 0  -0.8125 -0.75 0  -0.78125 -0.75 0  -0.75 -0.75 0  -0.71875 -0.75 0  -0.6875 -0.75 0  -0.65625 -0.75 0  -0.625 -0.75 0  -0.59375 -0.75 0  -0.5625 -0.75 0  -0.53125 -0.75 0  -0.5 -0.75 0  -0.46875 -0.75 0  -0.4375 -0.75 0  -0.40625 -0.75
[...]
<PointData  Scalars="f_7"> 
<DataArray  type="Float64"  Name="f_7"  format="ascii">0.0000000000000000e+00  0.0000000000000000e+00  0.0000000000000000e+00  0.0000000000000000e+00  0.0000000000000000e+00  0.0000000000000000e+00  0.0000000000000000e+00  0.0000000000000000e+00  0.0000000000000000e+00  0.0000000000000000e+00  0.0000000000000000e+00  0.0000000000000000e+00  0.0000000000000000e+00  0.0000000000000000e+00  0.0000000000000000e+00  0.0000000000000000e+00  0.0000000000000000e+00  0.0000000000000000e+00  0.0000000000000000e+00  0.0000000000000000e+00  0.0000000000000000e+00  0.0000000000000000e+00  0.0000000000000000e+00  0.0000000000000000e+00  0.0000000000000000e+00  0.0000000000000000e+00  0.0000000000000000e+00  0.0000000000000000e+00  0.0000000000000000e+00  0.0000000000000000e+00  0.0000000000000000e+00  0.0000000000000000e+00  0.0000000000000000e+00  0.0000000000000000e+00  0.0000000000000000e+00  0.0000000000000000e+00  0.0000000000000000e+00  0.0000000000000000e+00  0.0000000000000000e+00  0.0000000000000000e+00  0.0000000000000000e+00  0.0000000000000000e+00  0.0000000000000000e+00  0.0000000000000000e+00  0.0000000000000000e+00  0.0000000000000000e+00  0.0000000000000000e+00  0.0000000000000000e+00  0.0000000000000000e+00  0.0000000000000000e+00  0.0000000000000000e+00  0.0000000000000000e+00  0.0000000000000000e+00  0.0000000000000000e+00  0.0000000000000000e+00  0.0000000000000000e+00  0.0000000000000000e+00  0.0000000000000000e+00  0.0000000000000000e+00  0.0000000000000000e+00  0.0000000000000000e+00  0.0000000000000000e+00  0.0000000000000000e+00  0.0000000000000000e+00  0.0000000000000000e+00  0.0000000000000000e+00  -3.7689361888655973e-26  -2.1770314939258986e-26  -7.3052850007270800e-27  -1.1481350293011953e-27  5.3063509189245106e-28  6.0344829880429202e-28  3.5823933240483235e-28  1.6807793803718942e-28  6.7396685987204987e-29  2.3820548374074644e-29  7.5508691087882462e-30  2.1275765577548226e-30  5.1577255570220359e-31  1.0054346574143863e-31  1.1754695198985317e-32  -1.8323477734876771e-33  -1.8538520261627202e-33  -7.8024508144624430e-34  -2.4277292010791183e-34  -6.1991811786060548e-35  -1.3614405761671407e-35  -2.6559157675692515e-36  -4.7221614384958642e-37  -7.8043976197913998e-38  -1.2148221785095600e-38  -1.7934112905712803e-39  -2.5159963036824462e-40  -3.3460989180731820e-41  -4.1824824767525159e-42  -4.8144574788441942e-43  -4.8576219019762541e-44  -3.6680300345028485e-45  -2.2882718871511435e-47  7.0012576618660627e-47  2.0286561177287597e-47  4.2863207903588649e-48  7.9237056995939470e-49  1.3552838564204691e-49  2.1985446204082854e-50  3.4272620445100588e-51  5.1741234405596731e-52  7.6019314536541919e-53  1.0903822216885835e-53  1.5299355786190492e-54  2.1023860715190506e-55  2.8307298738307235e-56  3.7337415937484016e-57  4.8200022960485982e-58  6.0786826492878874e-59  7.4658171659458484e-60  8.8844208982709345e-61  1.0156330909636127e-61  1.0983099466447946e-62  1.0892621392195518e-63  9.1674473317578058e-65  4.7499388448565443e-66  -3.8813936086859396e-67  -1.8870784612717250e-67  -4.3186270671422553e-68  -8.0868286471514075e-69  -1.3728631910756784e-69  -2.1833657778842609e-70  -3.0681911869612488e-71  0.0000000000000000e+00  0.0000000000000000e+00  -3.2781461848730385e-25  -2.1046094749244995e-25  -8.7392112670052686e-26  -2.4978993804987374e-26  -2.7206438330312382e-27  2.1125750201803793e-27  1.9691084760569434e-27  1.0883949403813576e-27  4.7651866249918965e-28  1.8029076052742321e-28  6.0586552310425897e-29  1.8003453581949160e-29  4.6903720168223551e-30  1.0447973024576892e-30  1.7698601927285195e-31  1.0269792782547335e-32  -7.5546210147790507e-33  -4.0866865638598532e-33  -1.3304641672927481e-33  -3.4050607088562073e-34  -7.4472950915343143e-35  -1.4552466267087732e-35  -2.6137290171737375e-36  -4.3947143942678452e-37  -6.9958302010704406e-38  -1.0611625462584656e-38  -1.5382823414541911e-39  -2.1305828790627627e-40  -2.8084794511456275e-41  -3.4910583182253131e-42  -4.0143521219187946e-43  -4.0858501846647243e-44  -3.2202442626277022e-45  -6.5239916983406266e-47  4.7757910493346922e-47  1.4759078729034646e-47  3.1708079903344293e-48  5.8966487515253130e-49  1.0106346660593014e-49  1.6399171688445254e-50  2.5549231349485233e-51  3.8531272608444788e-52  5.6538234103703192e-53  8.0981807933251958e-54  1.1346280749798674e-54  1.5569209627032709e-55  2.0933488990664408e-56  2.7574078482045331e-57  3.5550807541956145e-58  4.4781317374468051e-59  5.4941378201470790e-60  6.5320720341661662e-61  7.4619191252111018e-62  8.0664068569263582e-63  8.0024732817903776e-64  6.7495703636089052e-65  3.5413416857972850e-66  -2.7233631094996390e-67  -1.3594691235365376e-67  -3.1215661045554893e-68  -5.8486706983662036e-69  -9.8896722017562430e-70  -1.4758393036230371e-70  0.0000000000000000e+00  0.0000000000000000e+00  -2.5077248165880403e-24  -1.7866682462182245e-24  -8.4959608527159959e-25  -2.9721966054935631e-25  -7.3087386319444644e-26  -5.4366281715970937e-27  7.5500603475203286e-27  5.9419038460388518e-27  2.9880464579343950e-27  1.2353977970040024e-27  4.4004666400633430e-28  1.3710093098050855e-28  3.7862280107765242e-29  9.1163184078494491e-30  1.7667817002626983e-30  2.1403457582663181e-31  -1.2143177653389116e-32  -1.6212873315976213e-32  -5.7457294033145304e-33  -1.4784238451223055e-33  -3.2093557629967372e-34  -6.2515888377316748e-35  -1.1284369043818129e-35  -1.9202870069714390e-36  -3.1093490311358011e-37  -4.8153848407242179e-38  -7.1528526918409711e-39  -1.0200249168375598e-39  -1.3948200298753665e-40  -1.8217642632904309e-41  -2.2535101408965733e-42  -2.5948182601227290e-43  -2.6763592287183340e-44  -2.2188510531970072e-45  -7.8510028209445923e-47  2.2828765683193964e-47  7.9441962983240721e-48  1.7558669108618032e-48  3.3006224474362509e-49  5.6824928994771383e-50  9.2362798353586654e-51  1.4393294412994427e-51  2.1695315820741739e-52  3.1803882258206275e-53  4.5500088502774836e-54  6.3667701356857678e-55  8.7249160735872757e-56  1.1715965119164544e-56  1.5413867691854660e-57  1.9851117481264355e-58  2.4982074605469610e-59  3.0628563036073930e-60  3.6401324285248857e-61  4.1589117622724173e-62  4.5005129444190625e-63  4.4777880967942634e-64  3.8071035045104618e-65  2.0713492443505809e-66  -1.3281855504908816e-67  -7.2333950638290999e-68  -1.6803348537573582e-68  -3.1500730282657807e-69  -5.0319335356618147e-70  0.0000000000000000e+00  0.0000000000000000e+00  -1.7093192046742725e-23  -1.3810897988285828e-23  -7.2544774458277091e-24  -2.8866483914434060e-24  -9.1950727910044622e-25  -1.9776197117800812e-25  -1.6793355524912519e-27  2.4780970204568674e-26  1.6829769630398275e-26  7.9253676701431358e-27  3.0179487125163742e-27  9.9206789443639030e-28  2.8917160401244758e-28  7.3021435109061748e-29  1.5060445840878045e-29  2.2859024767994752e-30  1.6899303733074237e-31  -3.3677594349006574e-32  -1.8223634734809627e-32  -5.1293020568160999e-33  -1.1572967774981241e-33  -2.3170746740700312e-34  -4.2838079467032888e-35  -7.4493152340533637e-36  -1.2307572642980233e-36  -1.9443849320269802e-37  -2.9495758423520527e-38  -4.3066052797532471e-39  -6.0563074928744667e-40  -8.1930756914280344e-41  -1.0621559893189676e-41  -1.3091474791252801e-42  -1.5104205255717788e-43  -1.5782159430116392e-44  -1.3688910575184304e-45  -6.5876999509157938e-47  8.8729975810822842e-48  3.7557512633236858e-48  8.6334010532338224e-49  1.6466257229074154e-49  2.8527302609376761e-50  4.6490698837579958e-51  7.2507130293099312e-52  1.0927097736235104e-52  1.6006414210848218e-53  2.2875297486109574e-54  3.1970311420425361e-55  4.3756132614902298e-56  5.8683251316989379e-57  7.7115249219370904e-58  9.9212130677496269e-59  1.2475161764217968e-59  1.5286459924685285e-60  1.8165386305036939e-61  2.0765665540434107e-62  2.2510142551874638e-63  2.2489730683550691e-64  1.9328163617537995e-65  1.1003657889656615e-66  -5.3826122731151733e-68  -3.3894441422141555e-68  -7.9857810593074288e-69  -1.4234097288665410e-69  0.0000000000000000e+00  0.0000000000000000e+00  -1.0084638768237286e-22  -9.6000061112004256e-23  -5.5516754076449127e-23  -2.5038607170247595e-23  -9.1599788051830629e-24  -2.5352338732068483e-24  -4.6272024478323872e-25  2.6096515562823151e-26  7.9324465388576176e-26  4.6462064003918406e-26  1.9414442862449721e-26  6.8603113013249928e-27  2.1062663114557953e-27  5.4638069639490734e-28  1.1609654429230659e-28  1.9667109595650312e-29  2.5054412166996407e-30  1.7812795380954579e-31  -1.9723379972074089e-32  -1.1803613012698775e-32  -3.2831731068091041e-33  -7.3032068594656448e-34  -1.4385711086348082e-34  -2.6086480539971870e-35  -4.4442894110745651e-36  -7.2012522661072181e-37  -1.1181470694696051e-37  -1.6711308120337825e-38  -2.4095555638800271e-39  -3.3534672344416456e-40  -4.4989952917013841e-41  -5.7976653418981316e-42  -7.1255233886074641e-43  -8.2382086366416671e-44  -8.7079040075804587e-45  -7.8378590719947948e-46  -4.5492326106157265e-47  2.7658143921586318e-48  1.6430294167620534e-48  3.9711443939088659e-49  7.7093402892020243e-50  1.3458970014051317e-50  2.2008384995609446e-51  3.4367365960038414e-52  5.1797590963101180e-53  7.5832088527398914e-54  1.0827282013837702e-54  1.5115029966571243e-55  2.0662203082104759e-56  2.7677700440035421e-57  3.6330098891469977e-58  4.6694122037502777e-59  5.8668855919453394e-60  7.1856939449647291e-61  8.5390776873454608e-62  9.7687971227433204e-63  1.0611361526945734e-63  1.0652179580534936e-64  9.2642745979186611e-66  5.5276017400130498e-67  -1.8741741719556959e-68  -1.4729187585608446e-68  -3.3542866630316001e-69  0.0000000000000000e+00  0.0000000000000000e+00  -4.5807450754583475e-22  -5.7309002152128841e-22  -3.8342782625130431e-22  -1.9741710143960696e-22  -7.9068086707078961e-23  -2.5668069806526087e-23  -6.7088966612275436e-24  -9.5508878301720075e-25  2.2331765732018831e-25  2.3194446411454450e-25  1.1585711902956216e-25  4.5577680465372573e-26  1.4650084165367433e-26  3.8235168493426264e-27  8.1602397748475879e-28  1.4491359446162665e-28  2.1711906932092452e-29  2.7036285975494471e-30  2.4703596026366347e-31  3.7048253844420555e-33  -5.4708334487425321e-33  -1.7926601784665148e-33  -4.1153694339476754e-34  -8.1013864980434254e-35  -1.4552282837287631e-35  -2.4513502092314074e-36  -3.9274401150275538e-37  -6.0327207802448442e-38  -8.9257043722152301e-39  -1.2752156234218905e-39  -1.7606553843364954e-40  -2.3469028982556497e-41  -3.0107163378390670e-42  -3.6930659548551426e-43  -4.2784796915197590e-44  -4.5664042371422017e-45  -4.2323018502966658e-46  -2.7761133767701694e-47  5.4419472243111288e-49  6.7961681680712308e-49  1.7475195927035888e-49  3.4626064352415520e-50  6.0981824885977473e-51  1.0011441010815172e-51  1.5658589874987259e-52  2.3608112732707430e-53  3.4549050001706483e-54  4.9289510447251563e-55  6.8738313021098020e-56  9.3859545149569528e-57  1.2558569470094713e-57  1.6466959319712466e-58  2.1144839396376629e-59  2.6548389581635290e-60  3.2503238569477276e-61  3.8628346480106519e-62  4.4229073478371908e-63  4.8149757145505100e-64  4.8573848325702430e-65  4.2757066720041785e-66  2.6677204043759046e-67  -5.3385310721973399e-69  -5.7475745271266769e-69  0.0000000000000000e+00  0.0000000000000000e+00  -7.3091862251562898e-22  -2.5772886394821689e-21  -2.3336235005861616e-21  -1.3935528154738434e-21  -6.1547951526135645e-22  -2.3080388292461482e-22  -7.0068861327938676e-23  -1.4747366789208938e-23  -1.2563622011118936e-24  7.9063841685326282e-25  6.4018084492015272e-25  2.9155672166650260e-25  9.5937332432376059e-26  2.4509074516222203e-26  5.1157479662619856e-27  9.1098652090286483e-28  1.4281772998971075e-28  1.9924269637951791e-29  2.4227295159697057e-30  2.3589194700911553e-31  1.1936183345745862e-32  -2.0247451882858472e-33  -8.7504513835684914e-34  -2.1131050415082411e-34  -4.2173583088287610e-35  -7.5874993075665022e-36  -1.2732161100802727e-36  -2.0270352648974776e-37  -3.0913143564017653e-38  -4.5411576681170643e-39  -6.4451773148034889e-40  -8.8471384633714082e-41  -1.1736644588463329e-41  -1.5004887124119160e-42  -1.8379804569895418e-43  -2.1333445059444485e-44  -2.2953641106361516e-45  -2.1771445161238502e-46  -1.5534493147443477e-47  -9.1568706684496941e-50  2.6852295986421761e-49  7.4422928223510126e-50  1.5086285046183906e-50  2.6825118780394479e-51  4.4232682696275484e-52  6.9313525871803410e-53  1.0455909588081945e-53  1.5298203123169429e-54  2.1810790808785365e-55  3.0389409466597016e-56  4.1453215531392912e-57  5.5407267244875390e-58  7.2578843266682233e-59  9.3116244488069581e-60  1.1683498005209164e-60  1.4299155154857967e-61  1.6995929080118863e-62  1.9477376124982031e-63  2.1250699305426970e-64  2.1541975706612531e-65  1.9182174406755266e-66  1.2451565227884738e-67  -7.5444154334997228e-70  0.0000000000000000e+00  0.0000000000000000e+00  1.6490893501474091e-20  -2.9552368140181668e-21  -1.1437224164180357e-20  -8.5222362660482301e-21  -4.3908088193098043e-21  -1.8752553120494015e-21  -6.1880740670004076e-22  -1.6062748165095153e-22  -3.1448683955713519e-23  -5.9076403014316589e-25  3.2612233015697150e-24  1.7434288980307064e-24  5.6585965195706538e-25  1.3778502042116031e-25  2.7590067219130851e-26  4.8167299351257026e-27  7.5975603895221160e-28  1.0986538152375974e-28  1.4534839325703316e-29  1.7269180265083628e-30  1.7411040795298890e-31  1.1893271776406590e-32  -4.2528665589619531e-34  -3.8486630586288521e-34  -1.0136263433844874e-34  -2.0727745574622788e-35  -3.7524928082081997e-36  -6.2941131279177248e-37  -9.9890828911548741e-38  -1.5168491384171138e-38  -2.2177670285294176e-39  -3.1328172204868169e-40  -4.2816496786541887e-41  -5.6594250514520401e-42  -7.2170213777699569e-43  -8.8322171503322427e-44  -1.0269195083561018e-44  -1.1122955763860035e-45  -1.0744620263825845e-46  -8.1434677041903257e-48  -1.8616882000925474e-49  1.0181837946724136e-49  3.0881377373928877e-50  6.4168017494218524e-51  1.1526312509167358e-51  1.9095083289713138e-52  2.9984871342891341e-53  4.5264101447171724e-54  6.6221760307937123e-55  9.4363196660275958e-56  1.3137508327207302e-56  1.7904132490983577e-57  2.3908444668219448e-58  3.1289751378639242e-59  4.0111943203860515e-60  5.0299104046487984e-61  6.1541015876593005e-62  7.3158011060635394e-63  8.3911760657211750e-64  9.1744914491166016e-65  9.3422493625924910e-66  8.3939936652593061e-67  5.4426000418739457e-68  0.0000000000000000e+00  0.0000000000000000e+00  2.9573801104644808e-19  1.0274137680827792e-19  -2.8485999264343348e-20  -4.0567814936116321e-20  -2.8280255604590737e-20  -1.3711764267792210e-20  -4.9415926996913065e-21  -1.5280230353116317e-21  -3.7515036188205007e-22  -4.2111807346573918e-23  1.3466373193493315e-23  8.8561873303731582e-24  2.7820943621572078e-24  6.4145210025535150e-25  1.2361278760112671e-25  2.1298464269945645e-26  3.3920663896833733e-27  5.0538734336737476e-28  7.0557996569050607e-29  9.1774504873983458e-30  1.0914829649088487e-30  1.1315810648508686e-31  8.8102655011924762e-33  1.0062013711526560e-34  -1.5606896414583462e-34  -4.6019830779087483e-35  -9.7038387780270118e-36  -1.7754032368044247e-36  -2.9862521170094872e-37  -4.7355338277361854e-38  -7.1728306229882652e-39  -1.0453437889099285e-39  -1.4716815855062569e-40  -2.0050030838989821e-41  -2.6430495807184963e-42  -3.3640574306457985e-43  -4.1143943407261752e-44  -4.7911422227465689e-45  -5.2182699785448916e-46  -5.1148817754573024e-47  -4.0538302393397378e-48  -1.4089399810936253e-49  3.7106614446336261e-50  1.2540036336265266e-50  2.6751685118373314e-51  4.8560777586280809e-52  8.0837834113685280e-53  1.2722010922848910e-53  1.9220676509710542e-54  2.8121417835745589e-55  4.0055557608972253e-56  5.5729256515990769e-57  7.5888371895120293e-58  1.0125257790448191e-58  1.3240445261996994e-59  1.6961429499609462e-60  2.1257517757808957e-61  2.6001494509706287e-62  3.0914227016065780e-63  3.5487109265306854e-64  3.8872549530854594e-65  3.9672367248828230e-66  3.4493101710799598e-67  0.0000000000000000e+00  0.0000000000000000e+00  3.2500790502966100e-18  1.4884230122083839e-18  3.1250037480382919e-19  -8.5990176688358239e-20  -1.5860806329696315e-19  -8.8858670486442551e-20  -3.6608575312371801e-20  -1.3178176626392669e-20  -3.5271763344033130e-21  -5.3498343741705811e-22  1.0975993580339592e-23  3.0633014471139015e-23  1.0073943881763558e-23  2.3062141698415719e-24  4.4833481374587306e-25  7.9476143721328831e-26  1.3146479740013780e-26  2.0422386763535681e-27  2.9869469283360253e-28  4.1092375881329015e-29  5.2832692426571091e-30  6.2533623306251103e-31  6.5747939714909683e-32  5.5199523413886547e-33  1.9582307669630817e-34  -5.7656806221753381e-35  -1.9954775369762827e-35  -4.3695204354738215e-36  -8.0984294036387329e-37  -1.3680144518877182e-37  -2.1706503901695529e-38  -3.2840371846492054e-39  -4.7764010298949076e-40  -6.7084948928778316e-41  -9.1180048012231140e-42  -1.1995087672181125e-42  -1.5245735603000852e-43  -1.8639147140557741e-44  -2.1734427986299548e-45  -2.3780825878188282e-46  -2.3584945138468148e-47  -1.9338178827677631e-48  -8.3977235366340457e-50  1.2984733924308169e-50  4.9990429581150982e-51  1.0961647006152582e-51  2.0110647038911189e-52  3.3640968717570436e-53  5.3063240488902297e-54  8.0242045029323126e-55  1.1741762452793752e-55  1.6719644515026013e-56  2.3248931041449803e-57  3.1636672662039000e-58  4.2178935298285342e-59  5.5115591556015557e-60  7.0559116793431051e-61  8.8387149775514490e-62  1.0808545189241077e-62  1.2852360701642189e-63  1.4762974771291179e-64  1.6166877807165623e-65  1.5847704793316725e-66  0.0000000000000000e+00  0.0000000000000000e+00  2.5835618495969170e-17  1.5079839299433332e-17  6.6104300139625344e-18  8.5055800457844500e-19  -6.4244797209886137e-19  -4.7140425234380898e-19  -2.5490601892077806e-19  -1.0631822750897533e-19  -2.9747298339553700e-20  -5.3542752735180810e-21  -5.4260558745781711e-22  9.7425246339524815e-24  1.8871821499734714e-23  5.6664041909495839e-24  1.2874688004999197e-24  2.5367220085401791e-25  4.5025468932067176e-26  7.3584377573428891e-27  1.1239032573886342e-27  1.6169555625677588e-28  2.1959756352777097e-29  2.8049621907775670e-30  3.3259075566412614e-31  3.5461022058954946e-32  3.1231696965234101e-33  1.5437983882478433e-34  -1.9310280725827496e-35  -8.3291730215879292e-36  -1.9025777162062950e-36  -3.5788035803342384e-37  -6.0796855951541643e-38  -9.6624988001406516e-39  -1.4613902016006634e-39  -2.1227921707469462e-40  -2.9765387390277157e-41  -4.0386877302370708e-42  -5.3049382223385850e-43  -6.7353677914195311e-44  -8.2325494922667384e-45  -9.6110655668348904e-46  -1.0556203700568147e-46  -1.0569326339372077e-47  -8.8971509477669629e-49  -4.4422158800317472e-50  4.3477412439907439e-51  1.9612812007567799e-51  4.4235957727096527e-52  8.2016769876971174e-53  1.3785606633548720e-53  2.1793652182161096e-54  3.2987449463047568e-55  4.8280405139643879e-56  6.8733457983482091e-57  9.5529664016986182e-58  1.2991549003099146e-58  1.7309198950701102e-59  2.2603292616882536e-60  2.8919908881456128e-61  3.6210811026482389e-62  4.4270513733967731e-63  5.2642273556017285e-64  6.0381118045505210e-65  6.3335657062967002e-66  0.0000000000000000e+00  0.0000000000000000e+00  1.5357347714122035e-16  1.3357631156112370e-16  7.0409784923905512e-17  1.5174133363237285e-17  1.1161544742151416e-18  -1.7074615555821526e-18  -1.7755274315749966e-18  -8.1990277923579545e-19  -2.2770733424027974e-19  -4.3688230337384833e-20  -6.3285721990048677e-21  -7.0659170180251100e-22  -4.6212309048640943e-23  4.8286966044506317e-24  2.6721069471986066e-24  6.7149852209441095e-25  1.3313657266645617e-25  2.3330767736112368e-26  3.7681081322948617e-27  5.7068665210278290e-28  8.1636221364649011e-29  1.1042306826103947e-29  1.4062086104523241e-30  1.6670386656109371e-31  1.7924709598831614e-32  1.6319365072082509e-33  9.5743110139451289e-35  -5.5830834693722842e-36  -3.3644127294880223e-36  -8.0554525301835106e-37  -1.5391669222011655e-37  -2.6308161552402169e-38  -4.1903559197134117e-39  -6.3395411849091316e-40  -9.2024869280044897e-41  -1.288870