<?xml version="1.0"?>
<VTKFile type="UnstructuredGrid"  version="0.1"  >
<UnstructuredGrid>
<Piece  NumberOfPoints="4225" NumberOfCells="8192">
<Points>
<DataArray  type="Float64"  NumberOfComponents="3"  format="ascii">-1 -1 0  -0.96875 -1 0  -0.9375 -1 0  -0.90625 -1 0  -0.875 -1 0  -0.84375 -1 0  -0.8125 -1 0  -0.78125 -1 0  -0.75 -1 0  -0.71875 -1 0  -0.6875 -1 0  -0.65625 -1 0  -0.625 -1 0  -0.59375 -1 0  -0.5625 -1 0  -0.53125 -1 0  -0.5 -1 0  -0.46875 -1 0  -0.4375 -1 0  -0.40625 -1 0  -0.375 -1 0  -0.34375 -1 0  -0.3125 -1 0  -0.28125 -1 0  -0.25 -1 0  -0.21875 -1 0  -0.1875 -1 0  -0.15625 -1 0  -0.125 -1 0  -0.09375 -1 0  -0.0625 -1 0  -0.03125 -1 0  0 -1 0  0.03125 -1 0  0.0625 -1 0  0.09375 -1 0  0.125 -1 0  0.15625 -1 0  0.1875 -1 0  0.21875 -1 0  0.25 -1 0  0.28125 -1 0  0.3125 -1 0  0.34375 -1 0  0.375 -1 0  0.40625 -1 0  0.4375 -1 0  0.46875 -1 0  0.5 -1 0  0.53125 -1 0  0.5625 -1 0  0.59375 -1 0  0.625 -1 0  0.65625 -1 0  0.6875 -1 0  0.71875 -1 0  0.75 -1 0  0.78125 -1 0  0.8125 -1 0  0.84375 -1 0  0.875 -1 0  0.90625 -1 0  0.9375 -1 0  0.96875 -1 0  1 -1 0  -1 -0.96875 0  -0.96875 -0.96875 0  -0.9375 -0.96875 0  -0.90625 -0.96875 0  -0.875 -0.96875 0  -0.84375 -0.96875 0  -0.8125 -0.96875 0  -0.78125 -0.96875 0  -0.75 -0.96875 0  -0.71875 -0.96875 0  -0.6875 -0.96875 0  -0.65625 -0.96875 0  -0.625 -0.96875 0  -0.59375 -0.96875 0  -0.5625 -0.96875 0  -0.53125 -0.96875 0  -0.5 -0.96875 0  -0.46875 -0.96875 0  -0.4375 -0.96875 0  -0.40625 -0.96875 0  -0.375 -0.96875 0  -0.34375 -0.96875 0  -0.3125 -0.96875 0  -0.28125 -0.96875 0  -0.25 -0.96875 0  -0.21875 -0.96875 0  -0.1875 -0.96875 0  -0.15625 -0.96875 0  -0.125 -0.96875 0  -0.09375 -0.96875 0  -0.0625 -0.96875 0  -0.03125 -0.96875 0  0 -0.96875 0  0.03125 -0.96875 0  0.0625 -0.96875 0  0.09375 -0.96875 0  0.125 -0.96875 0  0.15625 -0.96875 0  0.1875 -0.96875 0  0.21875 -0.96875 0  0.25 -0.96875 0  0.28125 -0.96875 0  0.3125 -0.96875 0  0.34375 -0.96875 0  0.375 -0.96875 0  0.40625 -0.96875 0  0.4375 -0.96875 0  0.46875 -0.96875 0  0.5 -0.96875 0  0.53125 -0.96875 0  0.5625 -0.96875 0  0.59375 -0.96875 0  0.625 -0.96875 0  0.65625 -0.96875 0  0.6875 -0.96875 0  0.71875 -0.96875 0  0.75 -0.96875 0  0.78125 -0.96875 0  0.8125 -0.96875 0  0.84375 -0.96875 0  0.875 -0.96875 0  0.90625 -0.96875 0  0.9375 -0.96875 0  0.96875 -0.96875 0  1 -0.96875 0  -1 -0.9375 0  -0.96875 -0.9375 0  -0.9375 -0.9375 0  -0.90625 -0.9375 0  -0.875 -0.9375 0  -0.84375 -0.9375 0  -0.8125 -0.9375 0  -0.78125 -0.9375 0  -0.75 -0.9375 0  -0.71875 -0.9375 0  -0.6875 -0.9375 0  -0.65625 -0.9375 0  -0.625 -0.9375 0  -0.59375 -0.9375 0  -0.5625 -0.9375 0  -0.53125 -0.9375 0  -0.5 -0.9375 0  -0.46875 -0.9375 0  -0.4375 -0.9375 0  -0.40625 -0.9375 0  -0.375 -0.9375 0  -0.34375 -0.9375 0  -0.3125 -0.9375 0  -0.28125 -0.9375 0  -0.25 -0.9375 0  -0.21875 -0.9375 0  -0.1875 -0.9375 0  -0.15625 -0.9375 0  -0.125 -0.9375 0  -0.09375 -0.9375 0  -0.0625 -0.9375 0  -0.03125 -0.9375 0  0 -0.9375 0  0.03125 -0.9375 0  0.0625 -0.9375 0  0.09375 -0.9375 0  0.125 -0.9375 0  0.15625 -0.9375 0  0.1875 -0.9375 0  0.21875 -0.9375 0  0.25 -0.9375 0  0.28125 -0.9375 0  0.3125 -0.9375 0  0.34375 -0.9375 0  0.375 -0.9375 0  0.40625 -0.9375 0  0.4375 -0.9375 0  0.46875 -0.9375 0  0.5 -0.9375 0  0.53125 -0.9375 0  0.5625 -0.9375 0  0.59375 -0.9375 0  0.625 -0.9375 0  0.65625 -0.9375 0  0.6875 -0.9375 0  0.71875 -0.9375 0  0.75 -0.9375 0  0.78125 -0.9375 0  0.8125 -0.9375 0  0.84375 -0.9375 0  0.875 -0.9375 0  0.90625 -0.9375 0  0.9375 -0.9375 0  0.96875 -0.9375 0  1 -0.9375 0  -1 -0.90625 0  -0.96875 -0.90625 0  -0.9375 -0.90625 0  -0.90625 -0.90625 0  -0.875 -0.90625 0  -0.84375 -0.90625 0  -0.8125 -0.90625 0  -0.78125 -0.90625 0  -0.75 -0.90625 0  -0.71875 -0.90625 0  -0.6875 -0.90625 0  -0.65625 -0.90625 0  -0.625 -0.90625 0  -0.59375 -0.90625 0  -0.5625 -0.90625 0  -0.53125 -0.90625 0  -0.5 -0.90625 0  -0.46875 -0.90625 0  -0.4375 -0.90625 0  -0.40625 -0.90625 0  -0.375 -0.90625 0  -0.34375 -0.90625 0  -0.3125 -0.90625 0  -0.28125 -0.90625 0  -0.25 -0.90625 0  -0.21875 -0.90625 0  -0.1875 -0.90625 0  -0.15625 -0.90625 0  -0.125 -0.90625 0  -0.09375 -0.90625 0  -0.0625 -0.90625 0  -0.03125 -0.90625 0  0 -0.90625 0  0.03125 -0.90625 0  0.0625 -0.90625 0  0.09375 -0.90625 0  0.125 -0.90625 0  0.15625 -0.90625 0  0.1875 -0.90625 0  0.21875 -0.90625 0  0.25 -0.90625 0  0.28125 -0.90625 0  0.3125 -0.90625 0  0.34375 -0.90625 0  0.375 -0.90625 0  0.40625 -0.90625 0  0.4375 -0.90625 0  0.46875 -0.90625 0  0.5 -0.90625 0  0.53125 -0.90625 0  0.5625 -0.90625 0  0.59375 -0.90625 0  0.625 -0.90625 0  0.65625 -0.90625 0  0.6875 -0.90625 0  0.71875 -0.90625 0  0.75 -0.90625 0  0.78125 -0.90625 0  0.8125 -0.90625 0  0.84375 -0.90625 0  0.875 -0.90625 0  0.90625 -0.90625 0  0.9375 -0.90625 0  0.96875 -0.90625 0  1 -0.90625 0  -1 -0.875 0  -0.96875 -0.875 0  -0.9375 -0.875 0  -0.90625 -0.875 0  -0.875 -0.875 0  -0.84375 -0.875 0  -0.8125 -0.875 0  -0.78125 -0.875 0  -0.75 -0.875 0  -0.71875 -0.875 0  -0.6875 -0.875 0  -0.65625 -0.875 0  -0.625 -0.875 0  -0.59375 -0.875 0  -0.5625 -0.875 0  -0.53125 -0.875 0  -0.5 -0.875 0  -0.46875 -0.875 0  -0.4375 -0.875 0  -0.40625 -0.875 0  -0.375 -0.875 0  -0.34375 -0.875 0  -0.3125 -0.875 0  -0.28125 -0.875 0  -0.25 -0.875 0  -0.21875 -0.875 0  -0.1875 -0.875 0  -0.15625 -0.875 0  -0.125 -0.875 0  -0.09375 -0.875 0  -0.0625 -0.875 0  -0.03125 -0.875 0  0 -0.875 0  0.03125 -0.875 0  0.0625 -0.875 0  0.09375 -0.875 0  0.125 -0.875 0  0.15625 -0.875 0  0.1875 -0.875 0  0.21875 -0.875 0  0.25 -0.875 0  0.28125 -0.875 0  0.3125 -0.875 0  0.34375 -0.875 0  0.375 -0.875 0  0.40625 -0.875 0  0.4375 -0.875 0  0.46875 -0.875 0  0.5 -0.875 0  0.53125 -0.875 0  0.5625 -0.875 0  0.59375 -0.875 0  0.625 -0.875 0  0.65625 -0.875 0  0.6875 -0.875 0  0.71875 -0.875 0  0.75 -0.875 0  0.78125 -0.875 0  0.8125 -0.875 0  0.84375 -0.875 0  0.875 -0.875 0  0.90625 -0.875 0  0.9375 -0.875 0  0.96875 -0.875 0  1 -0.875 0  -1 -0.84375 0  -0.96875 -0.84375 0  -0.9375 -0.84375 0  -0.90625 -0.84375 0  -0.875 -0.84375 0  -0.84375 -0.84375 0  -0.8125 -0.84375 0  -0.78125 -0.84375 0  -0.75 -0.84375 0  -0.71875 -0.84375 0  -0.6875 -0.84375 0  -0.65625 -0.84375 0  -0.625 -0.84375 0  -0.59375 -0.84375 0  -0.5625 -0.84375 0  -0.53125 -0.84375 0  -0.5 -0.84375 0  -0.46875 -0.84375 0  -0.4375 -0.84375 0  -0.40625 -0.84375 0  -0.375 -0.84375 0  -0.34375 -0.84375 0  -0.3125 -0.84375 0  -0.28125 -0.84375 0  -0.25 -0.84375 0  -0.21875 -0.84375 0  -0.1875 -0.84375 0  -0.15625 -0.84375 0  -0.125 -0.84375 0  -0.09375 -0.84375 0  -0.0625 -0.84375 0  -0.03125 -0.84375 0  0 -0.84375 0  0.03125 -0.84375 0  0.0625 -0.84375 0  0.09375 -0.84375 0  0.125 -0.84375 0  0.15625 -0.84375 0  0.1875 -0.84375 0  0.21875 -0.84375 0  0.25 -0.84375 0  0.28125 -0.84375 0  0.3125 -0.84375 0  0.34375 -0.84375 0  0.375 -0.84375 0  0.40625 -0.84375 0  0.4375 -0.84375 0  0.46875 -0.84375 0  0.5 -0.84375 0  0.53125 -0.84375 0  0.5625 -0.84375 0  0.59375 -0.84375 0  0.625 -0.84375 0  0.65625 -0.84375 0  0.6875 -0.84375 0  0.71875 -0.84375 0  0.75 -0.84375 0  0.78125 -0.84375 0  0.8125 -0.84375 0  0.84375 -0.84375 0  0.875 -0.84375 0  0.90625 -0.84375 0  0.9375 -0.84375 0  0.96875 -0.84375 0  1 -0.84375 0  -1 -0.8125 0  -0.96875 -0.8125 0  -0.9375 -0.8125 0  -0.90625 -0.8125 0  -0.875 -0.8125 0  -0.84375 -0.8125 0  -0.8125 -0.8125 0  -0.78125 -0.8125 0  -0.75 -0.8125 0  -0.71875 -0.8125 0  -0.6875 -0.8125 0  -0.65625 -0.8125 0  -0.625 -0.8125 0  -0.59375 -0.8125 0  -0.5625 -0.8125 0  -0.53125 -0.8125 0  -0.5 -0.8125 0  -0.46875 -0.8125 0  -0.4375 -0.8125 0  -0.40625 -0.8125 0  -0.375 -0.8125 0  -0.34375 -0.8125 0  -0.3125 -0.8125 0  -0.28125 -0.8125 0  -0.25 -0.8125 0  -0.21875 -0.8125 0  -0.1875 -0.8125 0  -0.15625 -0.8125 0  -0.125 -0.8125 0  -0.09375 -0.8125 0  -0.0625 -0.8125 0  -0.03125 -0.8125 0  0 -0.8125 0  0.03125 -0.8125 0  0.0625 -0.8125 0  0.09375 -0.8125 0  0.125 -0.8125 0  0.15625 -0.8125 0  0.1875 -0.8125 0  0.21875 -0.8125 0  0.25 -0.8125 0  0.28125 -0.8125 0  0.3125 -0.8125 0  0.34375 -0.8125 0  0.375 -0.8125 0  0.40625 -0.8125 0  0.4375 -0.8125 0  0.46875 -0.8125 0  0.5 -0.8125 0  0.53125 -0.8125 0  0.5625 -0.8125 0  0.59375 -0.8125 0  0.625 -0.8125 0  0.65625 -0.8125 0  0.6875 -0.8125 0  0.71875 -0.8125 0  0.75 -0.8125 0  0.78125 -0.8125 0  0.8125 -0.8125 0  0.84375 -0.8125 0  0.875 -0.8125 0  0.90625 -0.8125 0  0.9375 -0.8125 0  0.96875 -0.8125 0  1 -0.8125 0  -1 -0.78125 0  -0.96875 -0.78125 0  -0.9375 -0.78125 0  -0.90625 -0.78125 0  -0.875 -0.78125 0  -0.84375 -0.78125 0  -0.8125 -0.78125 0  -0.78125 -0.78125 0  -0.75 -0.78125 0  -0.71875 -0.78125 0  -0.6875 -0.78125 0  -0.65625 -0.78125 0  -0.625 -0.78125 0  -0.59375 -0.78125 0  -0.5625 -0.78125 0  -0.53125 -0.78125 0  -0.5 -0.78125 0  -0.46875 -0.78125 0  -0.4375 -0.78125 0  -0.40625 -0.78125 0  -0.375 -0.78125 0  -0.34375 -0.78125 0  -0.3125 -0.78125 0  -0.28125 -0.78125 0  -0.25 -0.78125 0  -0.21875 -0.78125 0  -0.1875 -0.78125 0  -0.15625 -0.78125 0  -0.125 -0.78125 0  -0.09375 -0.78125 0  -0.0625 -0.78125 0  -0.03125 -0.78125 0  0 -0.78125 0  0.03125 -0.78125 0  0.0625 -0.78125 0  0.09375 -0.78125 0  0.125 -0.78125 0  0.15625 -0.78125 0  0.1875 -0.78125 0  0.21875 -0.78125 0  0.25 -0.78125 0  0.28125 -0.78125 0  0.3125 -0.78125 0  0.34375 -0.78125 0  0.375 -0.78125 0  0.40625 -0.78125 0  0.4375 -0.78125 0  0.46875 -0.78125 0  0.5 -0.78125 0  0.53125 -0.78125 0  0.5625 -0.78125 0  0.59375 -0.78125 0  0.625 -0.78125 0  0.65625 -0.78125 0  0.6875 -0.78125 0  0.71875 -0.78125 0  0.75 -0.78125 0  0.78125 -0.78125 0  0.8125 -0.78125 0  0.84375 -0.78125 0  0.875 -0.78125 0  0.90625 -0.78125 0  0.9375 -0.78125 0  0.96875 -0.78125 0  1 -0.78125 0  -1 -0.75 0  -0.96875 -0.75 0  -0.9375 -0.75 0  -0.90625 -0.75 0  -0.875 -0.75 0  -0.84375 -0.75 0  -0.8125 -0.75 0  -0.78125 -0.75 0  -0.75 -0.75 0  -0.71875 -0.75 0  -0.6875 -0.75 0  -0.65625 -0.75 0  -0.625 -0.75 0  -0.59375 -0.75 0  -0.5625 -0.75 0  -0.53125 -0.75 0  -0.5 -0.75 0  -0.46875 -0.75 0  -0.4375 -0.75 0  -0.40625 -0.75
[...]
<PointData  Scalars="f_7"> 
<DataArray  type="Float64"  Name="f_7"  format="ascii">0.0000000000000000e+00  0.0000000000000000e+00  0.0000000000000000e+00  0.0000000000000000e+00  0.0000000000000000e+00  0.0000000000000000e+00  0.0000000000000000e+00  0.0000000000000000e+00  0.0000000000000000e+00  0.0000000000000000e+00  0.0000000000000000e+00  0.0000000000000000e+00  0.0000000000000000e+00  0.0000000000000000e+00  0.0000000000000000e+00  0.0000000000000000e+00  0.0000000000000000e+00  0.0000000000000000e+00  0.0000000000000000e+00  0.0000000000000000e+00  0.0000000000000000e+00  0.0000000000000000e+00  0.0000000000000000e+00  0.0000000000000000e+00  0.0000000000000000e+00  0.0000000000000000e+00  0.0000000000000000e+00  0.0000000000000000e+00  0.0000000000000000e+00  0.0000000000000000e+00  0.0000000000000000e+00  0.0000000000000000e+00  0.0000000000000000e+00  0.0000000000000000e+00  0.0000000000000000e+00  0.0000000000000000e+00  0.0000000000000000e+00  0.0000000000000000e+00  0.0000000000000000e+00  0.0000000000000000e+00  0.0000000000000000e+00  0.0000000000000000e+00  0.0000000000000000e+00  0.0000000000000000e+00  0.0000000000000000e+00  0.0000000000000000e+00  0.0000000000000000e+00  0.0000000000000000e+00  0.0000000000000000e+00  0.0000000000000000e+00  0.0000000000000000e+00  0.0000000000000000e+00  0.0000000000000000e+00  0.0000000000000000e+00  0.0000000000000000e+00  0.0000000000000000e+00  0.0000000000000000e+00  0.0000000000000000e+00  0.0000000000000000e+00  0.0000000000000000e+00  0.0000000000000000e+00  0.0000000000000000e+00  0.0000000000000000e+00  0.0000000000000000e+00  0.0000000000000000e+00  0.0000000000000000e+00  4.4516234563667726e-29  3.4425393521154665e-29  1.8711757580518329e-29  8.5868069866054173e-30  3.5462021323196223e-30  1.3506456585962679e-30  4.8025948269819602e-31  1.6115492557166883e-31  5.1247986923249660e-32  1.5455563772447867e-32  4.4293815623843661e-33  1.2058492964874775e-33  3.1031223945561391e-34  7.5053071444289749e-35  1.6948044865443262e-35  3.5182233358110526e-36  6.4888165400233161e-37  9.9395692648655143e-38  1.0563387048527403e-38  1.3177660917044242e-41  -3.6482799000689588e-40  -1.2263986712760741e-40  -2.9210848473480240e-41  -5.9472467436201211e-42  -1.1064746954583363e-42  -1.9417663265632226e-43  -3.2653634830187931e-44  -5.3056140860552926e-45  -8.3744761337512724e-46  -1.2898168576088783e-46  -1.9457162880611094e-47  -2.8833032322753723e-48  -4.2064529287940818e-49  -6.0519803183641049e-50  -8.5990330348259579e-51  -1.2080808026036294e-51  -1.6798732942486453e-52  -2.3139659953408278e-53  -3.1596883516272154e-54  -4.2795653233218339e-55  -5.7523641941408291e-56  -7.6766861578989260e-57  -1.0175163619599346e-57  -1.3399312766084416e-58  -1.7535052739660422e-59  -2.2808851806125505e-60  -2.9494396164765799e-61  -3.7919578773815483e-62  -4.8473454000599120e-63  -6.1612584831050503e-64  -7.7865904392573528e-65  -9.7836793421256936e-66  -1.2220049923400752e-66  -1.5169423587268364e-67  -1.8709624076349623e-68  -2.2918863525977540e-69  -2.7869703453105233e-70  -3.3619731700640605e-71  -4.0197632066209852e-72  -4.7582220672223605e-73  -5.5657961769003558e-74  -6.3878163092690162e-75  -6.6392127784968564e-76  0.0000000000000000e+00  0.0000000000000000e+00  3.2042359444697718e-28  2.5811564721627388e-28  1.4493805871017302e-28  6.8442990981589689e-29  2.8909306674554901e-29  1.1169183018530854e-29  4.0234171164012293e-30  1.3653615410022222e-30  4.3730354702728781e-31  1.3270421977615089e-31  3.8280702976276176e-32  1.0469075530323429e-32  2.7030294520965724e-33  6.5738828983333448e-34  1.4968802297224543e-34  3.1393440769356631e-35  5.9076305574513446e-36  9.6379007358461236e-37  1.2892278283262261e-37  1.2034351603655322e-38  2.9958810780815062e-41  -3.3449519774354422e-40  -1.0691139344535506e-40  -2.4774569900615762e-41  -4.9784847349095016e-42  -9.1838332027322046e-43  -1.5965053500719635e-43  -2.6551565607805332e-44  -4.2663785265193357e-45  -6.6677466198265301e-46  -1.0182445593967015e-46  -1.5245248681974506e-47  -2.2436883018596273e-48  -3.2527902515162921e-49  -4.6532722854495927e-50  -6.5776064290871490e-51  -9.1975743190303678e-52  -1.2734561760812298e-52  -1.7472152062239088e-53  -2.3771327994509256e-54  -3.2088729494582999e-55  -4.2998477823542913e-56  -5.7218001240205714e-57  -7.5638186448155535e-58  -9.9358093742468822e-59  -1.2972432398151324e-59  -1.6837480059700203e-60  -2.1728619513841125e-61  -2.7882346142023517e-62  -3.5578886422959276e-63  -4.5146634550055257e-64  -5.6965488774904351e-65  -7.1468149941909740e-66  -8.9138028613266690e-67  -1.1050184269712756e-67  -1.3611422652056247e-68  -1.6653065079007596e-69  -2.0226358483960846e-70  -2.4371490849873262e-71  -2.9107260272677092e-72  -3.4410133785190895e-73  -4.0063849782870105e-74  -4.3210645055549441e-75  0.0000000000000000e+00  0.0000000000000000e+00  2.0736930527873587e-27  1.7930718993737929e-27  1.0531421972635178e-27  5.1648458555740579e-28  2.2281685678093739e-28  8.7485463076450428e-29  3.2001616189931461e-29  1.0952388176693015e-29  3.5250908805416749e-30  1.0757372753804151e-30  3.1123768498904231e-31  8.4996676991990916e-32  2.1902246820516916e-32  5.3218649562279418e-33  1.2073070393349921e-33  2.5104993079715797e-34  4.6960898343293411e-35  7.7899471204570459e-36  1.1309804064682464e-36  1.3988978281228633e-37  1.3417931321562128e-38  5.3751382787331490e-40  -1.7267201065691355e-40  -6.5917741544623700e-41  -1.5780812446155140e-41  -3.1800585403418797e-42  -5.8246693190315980e-43  -1.0024124432293212e-43  -1.6499182754327855e-44  -2.6247786566901330e-45  -4.0632839552098253e-46  -6.1497806293056296e-47  -9.1316073426313146e-48  -1.3337884645707173e-48  -1.9203028920719389e-49  -2.7296291618300765e-50  -3.8358668015640483e-51  -5.3348481328789077e-52  -7.3497246082282147e-53  -1.0037785546797019e-53  -1.3598730379629689e-54  -1.8284609813757070e-55  -2.4411654893747529e-56  -3.2374221549640016e-57  -4.2661055654935927e-58  -5.5874011205584811e-59  -7.2749236308080388e-60  -9.4180667995273057e-61  -1.2124540911359992e-61  -1.5523015187158503e-62  -1.9765721646166511e-63  -2.5030792890819117e-64  -3.1523988320898105e-65  -3.9479300187554737e-66  -4.9157707197922536e-67  -6.0843039075750322e-68  -7.4833505047102295e-69  -9.1426888181541563e-70  -1.1089663432599774e-70  -1.3345414299739455e-71  -1.5917028062578906e-72  -1.8738169959985780e-73  -2.0617792199062438e-74  0.0000000000000000e+00  0.0000000000000000e+00  1.1716845993182435e-26  1.1441730827610788e-26  7.3344384093833176e-27  3.7701279457420131e-27  1.6702486665469020e-27  6.7353478606299687e-28  2.5041856765528653e-28  8.6322706633187950e-29  2.8018774159892447e-29  8.6060046664607113e-30  2.4874032424155517e-30  6.7660403955273637e-31  1.7395335224857974e-31  4.2048940695046260e-32  9.3964062950172636e-33  1.9070921595647783e-33  3.4824354711360418e-34  5.7198607249838690e-35  8.4860440259470937e-36  1.1377231470712513e-36  1.3563390521789679e-37  1.3506546931894382e-38  8.5865600977376699e-40  -5.3322687422344051e-41  -3.4488873938171124e-41  -8.8133356778286017e-42  -1.7980595337445546e-42  -3.2892386743793105e-43  -5.6273404128621237e-44  -9.1891749646622288e-45  -1.4491441194169203e-45  -2.2236901223752759e-46  -3.3371924011690316e-47  -4.9158502330323308e-48  -7.1266052222524285e-49  -1.0188808246498991e-49  -1.4388793293233580e-50  -2.0097877852868916e-51  -2.7794538253225667e-52  -3.8091644648790470e-53  -5.1769658981489579e-54  -6.9816743130937155e-55  -9.3476831224479574e-56  -1.2430678075566135e-56  -1.6424365553732369e-57  -2.1568302029693703e-58  -2.8156882618839367e-59  -3.6549494166991280e-60  -4.7181751088657174e-61  -6.0577597928669487e-62  -7.7361864947327050e-63  -9.8272577796703804e-64  -1.2417191704833887e-64  -1.5605415562084053e-65  -1.9504811706847886e-66  -2.4241062388012775e-67  -2.9950594847229540e-68  -3.6776431134383666e-69  -4.4860969735331099e-70  -5.4334037232540491e-71  -6.5286389502633926e-72  -7.7548820987084226e-73  -8.6516248205992261e-74  0.0000000000000000e+00  0.0000000000000000e+00  4.3901014783451796e-26  6.3562109928961085e-26  4.7768809833352810e-26  2.6094171636912419e-26  1.2173786179711481e-26  5.0869532872633223e-27  1.9171952343574367e-27  6.6981929698566920e-28  2.2045836039715500e-28  6.7882732127274779e-29  1.9532411263040920e-29  5.3053985637834799e-30  1.3609371271886324e-30  3.2406978143397143e-31  7.0151565987971426e-32  1.3655843835133900e-32  2.3946114424337029e-33  3.8205661363112459e-34  5.6125653851361061e-35  7.6494022491069402e-36  9.6559404563304327e-37  1.1108316580457116e-37  1.1121693663761058e-38  8.2955452630379008e-40  4.6631411692590394e-42  -1.5645033183963346e-41  -4.4866123324787307e-42  -9.4105997272416299e-43  -1.7307917610048093e-43  -2.9530617184133021e-44  -4.7941381892286202e-45  -7.5076489627979705e-46  -1.1435341298770634e-46  -1.7033972533498597e-47  -2.4909649566945903e-48  -3.5860770525768827e-49  -5.0931464362257701e-50  -7.1478325719252660e-51  -9.9253438406723940e-52  -1.3650657675961445e-52  -1.8610990765426224e-53  -2.5170936638096796e-54  -3.3790740369180248e-55  -4.5048181613917344e-56  -5.9664527583192524e-57  -7.8535006595409045e-58  -1.0276419634371524e-58  -1.3370657403858897e-59  -1.7301221684110627e-60  -2.2267724155565685e-61  -2.8509797009862146e-62  -3.6312691232117941e-63  -4.6012736130251919e-64  -5.8002155995915846e-65  -7.2732483714770539e-66  -9.0715457915386995e-67  -1.1251980720406197e-67  -1.3876166809847486e-68  -1.7008545227441531e-69  -2.0712961968443569e-70  -2.5044283889286643e-71  -2.9969338729876418e-72  -3.3789547744638580e-73  0.0000000000000000e+00  0.0000000000000000e+00  -1.2723276844373507e-25  2.5159676566763036e-25  2.6704001973395166e-25  1.6782901802102972e-25  8.5899635815870588e-26  3.7120981995056893e-26  1.4310939013222781e-26  5.1411683552395367e-27  1.7109924171770237e-27  5.2485682136847411e-28  1.5108563635124912e-28  4.1202476444749937e-29  1.0456789103205324e-29  2.4043195081639182e-30  4.9356971887322937e-31  9.0626398721929448e-32  1.5078377124257046e-32  2.3126000090469022e-33  3.3194876778190127e-34  4.5007303323762341e-35  5.7778095997104138e-36  6.9913301885827659e-37  7.8612102183350934e-38  7.9233771916146157e-39  6.4393637909239146e-40  2.2863001626497226e-41  -6.1803989220374831e-42  -2.1321567534819348e-42  -4.6488589757922070e-43  -8.6377088072749960e-44  -1.4746632260332888e-44  -2.3858438729422904e-45  -3.7165277135774326e-46  -5.6264688154538785e-47  -8.3280439994440805e-48  -1.2101412082873901e-48  -1.7313620955333822e-49  -2.4442561142350185e-50  -3.4106674632044481e-51  -4.7101566852804799e-52  -6.4444982629384582e-53  -8.7431757166843318e-54  -1.1770041556108645e-54  -1.5731325540231562e-55  -2.0885195146458405e-56  -2.7553076625034512e-57  -3.6132926885602015e-58  -4.7114610173894949e-59  -6.1097472487456200e-60  -7.8810099699477637e-61  -1.0113206900313957e-61  -1.2911723487902072e-62  -1.6401769898543371e-63  -2.0730705136582287e-64  -2.6070067504641972e-65  -3.2616979612801211e-66  -4.0594443140527364e-67  -5.0249829179277903e-68  -6.1850570834998128e-69  -7.5675281912589322e-70  -9.1988480138408553e-71  -1.1076549777352474e-71  -1.2594549138357348e-72  0.0000000000000000e+00  0.0000000000000000e+00  -5.1955383458515718e-24  -5.2977895205758234e-25  9.7971679888121775e-25  9.7464209251328530e-25  5.6636996954808734e-25  2.5710100228056315e-25  1.0495014879106183e-25  3.8908625071254553e-26  1.2945887246721701e-26  3.9832446609800045e-27  1.1629466879628576e-27  3.1663259128333553e-28  7.7576588176569969e-29  1.6762404700128660e-29  3.1997442375093453e-30  5.4838803921633661e-31  8.6265667851461237e-32  1.2717372091131237e-32  1.7831428154435976e-33  2.3963877098124524e-34  3.0939704941018252e-35  3.8312022637904112e-36  4.5211911553770528e-37  5.0130451579684086e-38  5.0650620327699689e-39  4.3104498042627318e-40  2.2067730470851699e-41  -2.0362457587680157e-42  -9.5487596468619268e-43  -2.1914962003610203e-43  -4.1323088277239783e-44  -7.0766499424328163e-45  -1.1430326668343782e-45  -1.7738205263675004e-46  -2.6725421590881106e-47  -3.9350025544262442e-48  -5.6869629663006264e-49  -8.0924583493534740e-50  -1.1364118610751696e-50  -1.5775962084716909e-51  -2.1679179942811500e-52  -2.9521463328716227e-53  -3.9870509434827592e-54  -5.3442445853250036e-55  -7.1135971738678146e-56  -9.4073033357057940e-57  -1.2364685618356597e-57  -1.6157811686200964e-58  -2.0997989393190729e-59  -2.7143174352040678e-60  -3.4906276707898254e-61  -4.4664279545056676e-62  -5.6867968582592353e-63  -7.2051906512878292e-64  -9.0844046706430104e-65  -1.1397404493868056e-65  -1.4227886056548533e-66  -1.7670359370513858e-67  -2.1829457349172670e-68  -2.6817917511994780e-69  -3.2749271305463695e-70  -3.9644223692906001e-71  -4.5394227559251921e-72  0.0000000000000000e+00  0.0000000000000000e+00  -7.9394681405207228e-23  -2.9983646869277388e-23  -2.3205384251495489e-24  4.2822797506280031e-24  3.2096001178473594e-24  1.6941055065241313e-24  7.5597554615529617e-25  2.8400158338925591e-25  9.5170644192423504e-26  3.0183051786366185e-26  8.9425966827759415e-27  2.3579956250465065e-27  5.3842061105090384e-28  1.0671635940344003e-28  1.8741752497973560e-29  2.9992067996255627e-30  4.4922453285557748e-31  6.4214037962741486e-32  8.8516600876331361e-33  1.1813499952148138e-33  1.5277812577017107e-34  1.9126256173363758e-35  2.3103381356566300e-36  2.6752368336805395e-37  2.9329623701070497e-38  2.9675900293205237e-39  2.6032590982304226e-40  1.5811817797668428e-41  -4.6894518289334240e-43  -4.0676440900539555e-43  -9.9385223796258321e-44  -1.9076402064890368e-44  -3.2832745278413539e-45  -5.3024852216015977e-46  -8.2077032393894329e-47  -1.2320021424071600e-47  -1.8061687980940624e-48  -2.5984246108398382e-49  -3.6803781779432936e-50  -5.1444795058868972e-51  -7.1094317306967214e-52  -9.7268294148085472e-53  -1.3189269946602858e-53  -1.7740209922719883e-54  -2.3685856115338384e-55  -3.1409406209542701e-56  -4.1387976963802956e-57  -5.4212557004429181e-58  -7.0611291308136176e-59  -9.1476340106344659e-60  -1.1789443783614345e-60  -1.5118107823285288e-61  -1.9291793644827374e-62  -2.4499266649039645e-63  -3.0963952335680785e-64  -3.8947827361665944e-65  -4.8754747016203007e-66  -6.0732623211695487e-67  -7.5273584407904778e-68  -9.2810442374459222e-69  -1.1379639689358043e-69  -1.3839225296397462e-70  -1.5941233923283072e-71  0.0000000000000000e+00  0.0000000000000000e+00  -1.0079840686598348e-21  -4.6951556588715357e-22  -1.0733474647131812e-22  -3.3822424617013766e-24  1.3395676135002519e-23  1.0620586740898253e-23  5.1210742871094185e-24  1.9623379986421338e-24  6.9769234078615493e-25  2.3141594576488206e-25  6.6982831571258788e-26  1.6328620461020255e-26  3.3711780029667405e-27  6.0590513271543379e-28  9.8256178677089437e-29  1.4875632056936736e-29  2.1545252008521476e-30  3.0216614451873848e-31  4.1194645814863445e-32  5.4653656325478482e-33  7.0611155581515618e-34  8.8838222100411842e-35  1.0869888004676914e-35  1.2893195100493645e-36  1.4733284369411066e-37  1.6030755684853279e-38  1.6232072439808973e-39  1.4519716010631132e-40  9.7140262610480869e-42  1.3748587961830714e-44  -1.6558465785649981e-43  -4.3610467891147411e-44  -8.5425500478389449e-45  -1.4795104901823123e-45  -2.3914746547319990e-46  -3.6958073682005802e-47  -5.5316989683803731e-48  -8.0813196352276898e-49  -1.1581660360651128e-49  -1.6339233100672673e-50  -2.2748255795600354e-51  -3.1313085871016052e-52  -4.2675732165666244e-53  -5.7649361294926944e-54  -7.7258866332576581e-55  -1.0278970956760460e-55  -1.3584632607247500e-56  -1.7842140237695085e-57  -2.3297733842052842e-58  -3.0254110325096342e-59  -3.9081342340336702e-60  -5.0229273193445338e-61  -6.4241347492558165e-62  -8.1769708655349860e-63  -1.0359120141470532e-63  -1.3062363584815665e-64  -1.6394126761873283e-65  -2.0478788324546527e-66  -2.5458504070902311e-67  -3.1493049303678860e-68  -3.8754438472183275e-69  -4.7324104752781026e-70  -5.4796355446483280e-71  0.0000000000000000e+00  0.0000000000000000e+00  -1.1479099192853451e-20  -5.6467236741357211e-21  -1.7566859280232353e-21  -3.9075605719819387e-22  1.0675739763309712e-23  5.5618864906725904e-23  3.0257320508060808e-23  1.3257963728075290e-23  5.2646997029287555e-24  1.7417160941198527e-24  4.6259379727239392e-25  1.0034636535168018e-25  1.8497260684927572e-26  3.0365774238715591e-27  4.6380713292183588e-28  6.7937125097940325e-29  9.6691529172591732e-30  1.3405313375660296e-30  1.8113428759412584e-31  2.3892842345974596e-32  3.0818436932207507e-33  3.8893735396675919e-34  4.7992627811636255e-35  5.7786987381373554e-36  6.7646703390865589e-37  7.6512036612032095e-38  8.2725006292239532e-39  8.3783989841305852e-40  7.6004486583204734e-41  5.4093025784672006e-42  1.0610392942091477e-43  -6.4743611765370928e-44  -1.8607971788143792e-44  -3.7252884864719436e-45  -6.4976379968873103e-46  -1.0519398201610603e-46  -1.6241730436655535e-47  -2.4256612465941192e-48  -3.5335762565474493e-49  -5.0479160924304336e-50  -7.0975424243681609e-51  -9.8476433273814441e-52  -1.3508896132287016e-52  -1.8348665995673621e-53  -2.4704628606944144e-54  -3.3001240432879923e-55  -4.3769517380287360e-56  -5.7670625374720598e-57  -7.5523810000929316e-58  -9.8339178776128133e-59  -1.2735579433675392e-59  -1.6408542537931528e-60  -2.1036209969690360e-61  -2.6839726524960926e-62  -3.4083983978702675e-63  -4.3083964902611575e-64  -5.4211162202675541e-65  -6.7899649529250264e-66  -8.4651133746061042e-67  -1.0503754287607731e-67  -1.2968758175121869e-68  -1.5895369185411192e-69  -1.8490917975273604e-70  0.0000000000000000e+00  0.0000000000000000e+00  -1.2029908335229448e-19  -6.2213406511535807e-20  -2.2929300319232010e-20  -6.0463287577310712e-21  -7.8451520751862978e-22  1.0480280431314822e-22  1.5100534500760012e-22  9.3889127176153534e-23  3.9453507781897641e-23  1.1928365993625069e-23  2.7699403958095274e-24  5.2749272720221767e-25  8.7862889560125938e-26  1.3556183409208655e-26  2.0117528677535281e-27  2.9097722544545499e-28  4.1011228985735820e-29  5.6303419453545002e-30  7.5504863524216384e-31  9.9217708822327327e-32  1.2794260895987144e-32  1.6191959360435549e-33  2.0099992545798020e-34  2.4445195069746481e-35  2.9066796069821972e-36  3.3675362328564269e-37  3.7792873903852580e-38  4.0671259265659625e-39  4.1191395768236105e-40  3.7733334421351430e-41  2.7997939917875971e-42  8.7685923679419152e-44  -2.4390284198780504e-44  -7.7514301346931350e-45  -1.5873256160394278e-45  -2.7890375300814228e-46  -4.5241915449469759e-47  -6.9820913474207085e-48  -1.0410091034613310e-48  -1.5129476471324111e-49  -2.1555215613337912e-50  -3.0220368570344104e-51  -4.1806170024187397e-52  -5.7178955572722752e-53  -7.7435218432879515e-54  -1.0395625648447680e-54  -1.3847408768944265e-55  -1.8315048285800151e-56  -2.4067106552959584e-57  -3.1435648300885196e-58  -4.0829262280555788e-59  -5.2748163869554484e-60  -6.7801507014204989e-61  -8.6726949602430977e-62  -1.1041238098954976e-62  -1.3991951164587556e-63  -1.7650871382741359e-64  -2.2166404976602691e-65  -2.7711672824872195e-66  -3.4486286571820366e-67  -4.2713272713549304e-68  -5.2532688663268658e-69  -6.1371034675096307e-70  0.0000000000000000e+00  0.0000000000000000e+00  -1.1917975863391071e-18  -6.5317197167390060e-19  -2.5946618508263970e-19  -7.2718956999801769e-20  -1.5901050939869063e-20  -2.3060156822924510e-21  6.8043216150558392e-22  6.6900127366755752e-22  2.6218123967827203e-22  6.8245992177361412e-23  1.3682920225961478e-23  2.3325714696485821e-24  3.6588276222578847e-25  5.5400488650709817e-26  8.1934573826906977e-27  1.1780331705223888e-27  1.6448608906850153e-28  2.2415764351018128e-29  2.9960049586922612e-30  3.9345675112137688e-31  5.0783325088776451e-32  6.4428542858224022e-33  8.0352949762177105e-34  9.8470496480907346e-35  1.1843480384697022e-35  1.3950115308466348e-36  1.6034297229914438e-37  1.7882102537254047e-38  1.9167434155227054e-39  1.9408290781241688e-40  1.7908605685618701e-