<?xml version="1.0"?>
<VTKFile type="UnstructuredGrid"  version="0.1"  >
<UnstructuredGrid>
<Piece  NumberOfPoints="4225" NumberOfCells="8192">
<Points>
<DataArray  type="Float64"  NumberOfComponents="3"  format="ascii">-1 -1 0  -0.96875 -1 0  -0.9375 -1 0  -0.90625 -1 0  -0.875 -1 0  -0.84375 -1 0  -0.8125 -1 0  -0.78125 -1 0  -0.75 -1 0  -0.71875 -1 0  -0.6875 -1 0  -0.65625 -1 0  -0.625 -1 0  -0.59375 -1 0  -0.5625 -1 0  -0.53125 -1 0  -0.5 -1 0  -0.46875 -1 0  -0.4375 -1 0  -0.40625 -1 0  -0.375 -1 0  -0.34375 -1 0  -0.3125 -1 0  -0.28125 -1 0  -0.25 -1 0  -0.21875 -1 0  -0.1875 -1 0  -0.15625 -1 0  -0.125 -1 0  -0.09375 -1 0  -0.0625 -1 0  -0.03125 -1 0  0 -1 0  0.03125 -1 0  0.0625 -1 0  0.09375 -1 0  0.125 -1 0  0.15625 -1 0  0.1875 -1 0  0.21875 -1 0  0.25 -1 0  0.28125 -1 0  0.3125 -1 0  0.34375 -1 0  0.375 -1 0  0.40625 -1 0  0.4375 -1 0  0.46875 -1 0  0.5 -1 0  0.53125 -1 0  0.5625 -1 0  0.59375 -1 0  0.625 -1 0  0.65625 -1 0  0.6875 -1 0  0.71875 -1 0  0.75 -1 0  0.78125 -1 0  0.8125 -1 0  0.84375 -1 0  0.875 -1 0  0.90625 -1 0  0.9375 -1 0  0.96875 -1 0  1 -1 0  -1 -0.96875 0  -0.96875 -0.96875 0  -0.9375 -0.96875 0  -0.90625 -0.96875 0  -0.875 -0.96875 0  -0.84375 -0.96875 0  -0.8125 -0.96875 0  -0.78125 -0.96875 0  -0.75 -0.96875 0  -0.71875 -0.96875 0  -0.6875 -0.96875 0  -0.65625 -0.96875 0  -0.625 -0.96875 0  -0.59375 -0.96875 0  -0.5625 -0.96875 0  -0.53125 -0.96875 0  -0.5 -0.96875 0  -0.46875 -0.96875 0  -0.4375 -0.96875 0  -0.40625 -0.96875 0  -0.375 -0.96875 0  -0.34375 -0.96875 0  -0.3125 -0.96875 0  -0.28125 -0.96875 0  -0.25 -0.96875 0  -0.21875 -0.96875 0  -0.1875 -0.96875 0  -0.15625 -0.96875 0  -0.125 -0.96875 0  -0.09375 -0.96875 0  -0.0625 -0.96875 0  -0.03125 -0.96875 0  0 -0.96875 0  0.03125 -0.96875 0  0.0625 -0.96875 0  0.09375 -0.96875 0  0.125 -0.96875 0  0.15625 -0.96875 0  0.1875 -0.96875 0  0.21875 -0.96875 0  0.25 -0.96875 0  0.28125 -0.96875 0  0.3125 -0.96875 0  0.34375 -0.96875 0  0.375 -0.96875 0  0.40625 -0.96875 0  0.4375 -0.96875 0  0.46875 -0.96875 0  0.5 -0.96875 0  0.53125 -0.96875 0  0.5625 -0.96875 0  0.59375 -0.96875 0  0.625 -0.96875 0  0.65625 -0.96875 0  0.6875 -0.96875 0  0.71875 -0.96875 0  0.75 -0.96875 0  0.78125 -0.96875 0  0.8125 -0.96875 0  0.84375 -0.96875 0  0.875 -0.96875 0  0.90625 -0.96875 0  0.9375 -0.96875 0  0.96875 -0.96875 0  1 -0.96875 0  -1 -0.9375 0  -0.96875 -0.9375 0  -0.9375 -0.9375 0  -0.90625 -0.9375 0  -0.875 -0.9375 0  -0.84375 -0.9375 0  -0.8125 -0.9375 0  -0.78125 -0.9375 0  -0.75 -0.9375 0  -0.71875 -0.9375 0  -0.6875 -0.9375 0  -0.65625 -0.9375 0  -0.625 -0.9375 0  -0.59375 -0.9375 0  -0.5625 -0.9375 0  -0.53125 -0.9375 0  -0.5 -0.9375 0  -0.46875 -0.9375 0  -0.4375 -0.9375 0  -0.40625 -0.9375 0  -0.375 -0.9375 0  -0.34375 -0.9375 0  -0.3125 -0.9375 0  -0.28125 -0.9375 0  -0.25 -0.9375 0  -0.21875 -0.9375 0  -0.1875 -0.9375 0  -0.15625 -0.9375 0  -0.125 -0.9375 0  -0.09375 -0.9375 0  -0.0625 -0.9375 0  -0.03125 -0.9375 0  0 -0.9375 0  0.03125 -0.9375 0  0.0625 -0.9375 0  0.09375 -0.9375 0  0.125 -0.9375 0  0.15625 -0.9375 0  0.1875 -0.9375 0  0.21875 -0.9375 0  0.25 -0.9375 0  0.28125 -0.9375 0  0.3125 -0.9375 0  0.34375 -0.9375 0  0.375 -0.9375 0  0.40625 -0.9375 0  0.4375 -0.9375 0  0.46875 -0.9375 0  0.5 -0.9375 0  0.53125 -0.9375 0  0.5625 -0.9375 0  0.59375 -0.9375 0  0.625 -0.9375 0  0.65625 -0.9375 0  0.6875 -0.9375 0  0.71875 -0.9375 0  0.75 -0.9375 0  0.78125 -0.9375 0  0.8125 -0.9375 0  0.84375 -0.9375 0  0.875 -0.9375 0  0.90625 -0.9375 0  0.9375 -0.9375 0  0.96875 -0.9375 0  1 -0.9375 0  -1 -0.90625 0  -0.96875 -0.90625 0  -0.9375 -0.90625 0  -0.90625 -0.90625 0  -0.875 -0.90625 0  -0.84375 -0.90625 0  -0.8125 -0.90625 0  -0.78125 -0.90625 0  -0.75 -0.90625 0  -0.71875 -0.90625 0  -0.6875 -0.90625 0  -0.65625 -0.90625 0  -0.625 -0.90625 0  -0.59375 -0.90625 0  -0.5625 -0.90625 0  -0.53125 -0.90625 0  -0.5 -0.90625 0  -0.46875 -0.90625 0  -0.4375 -0.90625 0  -0.40625 -0.90625 0  -0.375 -0.90625 0  -0.34375 -0.90625 0  -0.3125 -0.90625 0  -0.28125 -0.90625 0  -0.25 -0.90625 0  -0.21875 -0.90625 0  -0.1875 -0.90625 0  -0.15625 -0.90625 0  -0.125 -0.90625 0  -0.09375 -0.90625 0  -0.0625 -0.90625 0  -0.03125 -0.90625 0  0 -0.90625 0  0.03125 -0.90625 0  0.0625 -0.90625 0  0.09375 -0.90625 0  0.125 -0.90625 0  0.15625 -0.90625 0  0.1875 -0.90625 0  0.21875 -0.90625 0  0.25 -0.90625 0  0.28125 -0.90625 0  0.3125 -0.90625 0  0.34375 -0.90625 0  0.375 -0.90625 0  0.40625 -0.90625 0  0.4375 -0.90625 0  0.46875 -0.90625 0  0.5 -0.90625 0  0.53125 -0.90625 0  0.5625 -0.90625 0  0.59375 -0.90625 0  0.625 -0.90625 0  0.65625 -0.90625 0  0.6875 -0.90625 0  0.71875 -0.90625 0  0.75 -0.90625 0  0.78125 -0.90625 0  0.8125 -0.90625 0  0.84375 -0.90625 0  0.875 -0.90625 0  0.90625 -0.90625 0  0.9375 -0.90625 0  0.96875 -0.90625 0  1 -0.90625 0  -1 -0.875 0  -0.96875 -0.875 0  -0.9375 -0.875 0  -0.90625 -0.875 0  -0.875 -0.875 0  -0.84375 -0.875 0  -0.8125 -0.875 0  -0.78125 -0.875 0  -0.75 -0.875 0  -0.71875 -0.875 0  -0.6875 -0.875 0  -0.65625 -0.875 0  -0.625 -0.875 0  -0.59375 -0.875 0  -0.5625 -0.875 0  -0.53125 -0.875 0  -0.5 -0.875 0  -0.46875 -0.875 0  -0.4375 -0.875 0  -0.40625 -0.875 0  -0.375 -0.875 0  -0.34375 -0.875 0  -0.3125 -0.875 0  -0.28125 -0.875 0  -0.25 -0.875 0  -0.21875 -0.875 0  -0.1875 -0.875 0  -0.15625 -0.875 0  -0.125 -0.875 0  -0.09375 -0.875 0  -0.0625 -0.875 0  -0.03125 -0.875 0  0 -0.875 0  0.03125 -0.875 0  0.0625 -0.875 0  0.09375 -0.875 0  0.125 -0.875 0  0.15625 -0.875 0  0.1875 -0.875 0  0.21875 -0.875 0  0.25 -0.875 0  0.28125 -0.875 0  0.3125 -0.875 0  0.34375 -0.875 0  0.375 -0.875 0  0.40625 -0.875 0  0.4375 -0.875 0  0.46875 -0.875 0  0.5 -0.875 0  0.53125 -0.875 0  0.5625 -0.875 0  0.59375 -0.875 0  0.625 -0.875 0  0.65625 -0.875 0  0.6875 -0.875 0  0.71875 -0.875 0  0.75 -0.875 0  0.78125 -0.875 0  0.8125 -0.875 0  0.84375 -0.875 0  0.875 -0.875 0  0.90625 -0.875 0  0.9375 -0.875 0  0.96875 -0.875 0  1 -0.875 0  -1 -0.84375 0  -0.96875 -0.84375 0  -0.9375 -0.84375 0  -0.90625 -0.84375 0  -0.875 -0.84375 0  -0.84375 -0.84375 0  -0.8125 -0.84375 0  -0.78125 -0.84375 0  -0.75 -0.84375 0  -0.71875 -0.84375 0  -0.6875 -0.84375 0  -0.65625 -0.84375 0  -0.625 -0.84375 0  -0.59375 -0.84375 0  -0.5625 -0.84375 0  -0.53125 -0.84375 0  -0.5 -0.84375 0  -0.46875 -0.84375 0  -0.4375 -0.84375 0  -0.40625 -0.84375 0  -0.375 -0.84375 0  -0.34375 -0.84375 0  -0.3125 -0.84375 0  -0.28125 -0.84375 0  -0.25 -0.84375 0  -0.21875 -0.84375 0  -0.1875 -0.84375 0  -0.15625 -0.84375 0  -0.125 -0.84375 0  -0.09375 -0.84375 0  -0.0625 -0.84375 0  -0.03125 -0.84375 0  0 -0.84375 0  0.03125 -0.84375 0  0.0625 -0.84375 0  0.09375 -0.84375 0  0.125 -0.84375 0  0.15625 -0.84375 0  0.1875 -0.84375 0  0.21875 -0.84375 0  0.25 -0.84375 0  0.28125 -0.84375 0  0.3125 -0.84375 0  0.34375 -0.84375 0  0.375 -0.84375 0  0.40625 -0.84375 0  0.4375 -0.84375 0  0.46875 -0.84375 0  0.5 -0.84375 0  0.53125 -0.84375 0  0.5625 -0.84375 0  0.59375 -0.84375 0  0.625 -0.84375 0  0.65625 -0.84375 0  0.6875 -0.84375 0  0.71875 -0.84375 0  0.75 -0.84375 0  0.78125 -0.84375 0  0.8125 -0.84375 0  0.84375 -0.84375 0  0.875 -0.84375 0  0.90625 -0.84375 0  0.9375 -0.84375 0  0.96875 -0.84375 0  1 -0.84375 0  -1 -0.8125 0  -0.96875 -0.8125 0  -0.9375 -0.8125 0  -0.90625 -0.8125 0  -0.875 -0.8125 0  -0.84375 -0.8125 0  -0.8125 -0.8125 0  -0.78125 -0.8125 0  -0.75 -0.8125 0  -0.71875 -0.8125 0  -0.6875 -0.8125 0  -0.65625 -0.8125 0  -0.625 -0.8125 0  -0.59375 -0.8125 0  -0.5625 -0.8125 0  -0.53125 -0.8125 0  -0.5 -0.8125 0  -0.46875 -0.8125 0  -0.4375 -0.8125 0  -0.40625 -0.8125 0  -0.375 -0.8125 0  -0.34375 -0.8125 0  -0.3125 -0.8125 0  -0.28125 -0.8125 0  -0.25 -0.8125 0  -0.21875 -0.8125 0  -0.1875 -0.8125 0  -0.15625 -0.8125 0  -0.125 -0.8125 0  -0.09375 -0.8125 0  -0.0625 -0.8125 0  -0.03125 -0.8125 0  0 -0.8125 0  0.03125 -0.8125 0  0.0625 -0.8125 0  0.09375 -0.8125 0  0.125 -0.8125 0  0.15625 -0.8125 0  0.1875 -0.8125 0  0.21875 -0.8125 0  0.25 -0.8125 0  0.28125 -0.8125 0  0.3125 -0.8125 0  0.34375 -0.8125 0  0.375 -0.8125 0  0.40625 -0.8125 0  0.4375 -0.8125 0  0.46875 -0.8125 0  0.5 -0.8125 0  0.53125 -0.8125 0  0.5625 -0.8125 0  0.59375 -0.8125 0  0.625 -0.8125 0  0.65625 -0.8125 0  0.6875 -0.8125 0  0.71875 -0.8125 0  0.75 -0.8125 0  0.78125 -0.8125 0  0.8125 -0.8125 0  0.84375 -0.8125 0  0.875 -0.8125 0  0.90625 -0.8125 0  0.9375 -0.8125 0  0.96875 -0.8125 0  1 -0.8125 0  -1 -0.78125 0  -0.96875 -0.78125 0  -0.9375 -0.78125 0  -0.90625 -0.78125 0  -0.875 -0.78125 0  -0.84375 -0.78125 0  -0.8125 -0.78125 0  -0.78125 -0.78125 0  -0.75 -0.78125 0  -0.71875 -0.78125 0  -0.6875 -0.78125 0  -0.65625 -0.78125 0  -0.625 -0.78125 0  -0.59375 -0.78125 0  -0.5625 -0.78125 0  -0.53125 -0.78125 0  -0.5 -0.78125 0  -0.46875 -0.78125 0  -0.4375 -0.78125 0  -0.40625 -0.78125 0  -0.375 -0.78125 0  -0.34375 -0.78125 0  -0.3125 -0.78125 0  -0.28125 -0.78125 0  -0.25 -0.78125 0  -0.21875 -0.78125 0  -0.1875 -0.78125 0  -0.15625 -0.78125 0  -0.125 -0.78125 0  -0.09375 -0.78125 0  -0.0625 -0.78125 0  -0.03125 -0.78125 0  0 -0.78125 0  0.03125 -0.78125 0  0.0625 -0.78125 0  0.09375 -0.78125 0  0.125 -0.78125 0  0.15625 -0.78125 0  0.1875 -0.78125 0  0.21875 -0.78125 0  0.25 -0.78125 0  0.28125 -0.78125 0  0.3125 -0.78125 0  0.34375 -0.78125 0  0.375 -0.78125 0  0.40625 -0.78125 0  0.4375 -0.78125 0  0.46875 -0.78125 0  0.5 -0.78125 0  0.53125 -0.78125 0  0.5625 -0.78125 0  0.59375 -0.78125 0  0.625 -0.78125 0  0.65625 -0.78125 0  0.6875 -0.78125 0  0.71875 -0.78125 0  0.75 -0.78125 0  0.78125 -0.78125 0  0.8125 -0.78125 0  0.84375 -0.78125 0  0.875 -0.78125 0  0.90625 -0.78125 0  0.9375 -0.78125 0  0.96875 -0.78125 0  1 -0.78125 0  -1 -0.75 0  -0.96875 -0.75 0  -0.9375 -0.75 0  -0.90625 -0.75 0  -0.875 -0.75 0  -0.84375 -0.75 0  -0.8125 -0.75 0  -0.78125 -0.75 0  -0.75 -0.75 0  -0.71875 -0.75 0  -0.6875 -0.75 0  -0.65625 -0.75 0  -0.625 -0.75 0  -0.59375 -0.75 0  -0.5625 -0.75 0  -0.53125 -0.75 0  -0.5 -0.75 0  -0.46875 -0.75 0  -0.4375 -0.75 0  -0.40625 -0.75
[...]
<PointData  Scalars="f_10"> 
<DataArray  type="Float64"  Name="f_10"  format="ascii">0.0000000000000000e+00  0.0000000000000000e+00  0.0000000000000000e+00  0.0000000000000000e+00  0.0000000000000000e+00  0.0000000000000000e+00  0.0000000000000000e+00  0.0000000000000000e+00  0.0000000000000000e+00  0.0000000000000000e+00  0.0000000000000000e+00  0.0000000000000000e+00  0.0000000000000000e+00  0.0000000000000000e+00  0.0000000000000000e+00  0.0000000000000000e+00  0.0000000000000000e+00  0.0000000000000000e+00  0.0000000000000000e+00  0.0000000000000000e+00  0.0000000000000000e+00  0.0000000000000000e+00  0.0000000000000000e+00  0.0000000000000000e+00  0.0000000000000000e+00  0.0000000000000000e+00  0.0000000000000000e+00  0.0000000000000000e+00  0.0000000000000000e+00  0.0000000000000000e+00  0.0000000000000000e+00  0.0000000000000000e+00  0.0000000000000000e+00  0.0000000000000000e+00  0.0000000000000000e+00  0.0000000000000000e+00  0.0000000000000000e+00  0.0000000000000000e+00  0.0000000000000000e+00  0.0000000000000000e+00  0.0000000000000000e+00  0.0000000000000000e+00  0.0000000000000000e+00  0.0000000000000000e+00  0.0000000000000000e+00  0.0000000000000000e+00  0.0000000000000000e+00  0.0000000000000000e+00  0.0000000000000000e+00  0.0000000000000000e+00  0.0000000000000000e+00  0.0000000000000000e+00  0.0000000000000000e+00  0.0000000000000000e+00  0.0000000000000000e+00  0.0000000000000000e+00  0.0000000000000000e+00  0.0000000000000000e+00  0.0000000000000000e+00  0.0000000000000000e+00  0.0000000000000000e+00  0.0000000000000000e+00  0.0000000000000000e+00  0.0000000000000000e+00  0.0000000000000000e+00  0.0000000000000000e+00  1.2046082048551059e-21  4.1423715802168150e-22  -1.0946762051958104e-22  -2.2553920005929735e-22  -1.6717236377661158e-22  -8.5883406326217538e-23  -3.5451348350439305e-23  -1.1637056563748549e-23  -2.6978503643991376e-24  -2.0348068946826141e-25  2.2632464438122524e-25  1.7411847093109623e-25  8.1204214195150401e-26  2.9649900524871559e-26  9.0766704546202430e-27  2.2878460550285545e-27  4.2172509331601964e-28  3.1798255237041086e-29  -1.3102566424611490e-29  -7.2274110024132390e-30  -2.2177779722999263e-30  -5.3039210882896453e-31  -1.0896873758169739e-31  -2.0143577400834410e-32  -3.4307757300902273e-33  -5.4406674449238624e-34  -8.0519933026865139e-35  -1.1063830563160071e-35  -1.3873337617436149e-36  -1.5166467500613108e-37  -1.2471133889445024e-38  -1.5659906752476559e-40  2.4263731982631124e-40  7.5119319053569972e-41  1.6547226982438398e-41  3.1508973453248759e-42  5.4962219519425260e-43  9.0037631865919715e-44  1.4025269601069797e-44  2.0906910298517034e-45  2.9903549988741466e-46  4.1030644177628349e-47  5.3825744594702818e-48  6.6984198661663989e-49  7.7826678519439633e-50  8.1550474155854462e-51  7.0213944503883487e-52  3.1407706924680347e-53  -5.3417705547696727e-54  -2.1096262278019833e-54  -4.7835801556830744e-55  -9.0553877356706451e-56  -1.5573703081614263e-56  -2.5149427748451407e-57  -3.8750933977012331e-58  -5.7467237780964143e-59  -8.2418105772742164e-60  -1.1458126169255677e-60  -1.5449540960789390e-61  -2.0178053482876897e-62  -2.5433310934335816e-63  -3.0576100680266465e-64  -3.1983318880093844e-65  0.0000000000000000e+00  0.0000000000000000e+00  1.1155790207619823e-20  6.2125506387719553e-21  1.4813473600451416e-21  -5.9684442527270450e-22  -8.3764199988307771e-22  -5.4344003557326910e-22  -2.6437835645347169e-22  -9.9922397199223556e-23  -2.9655872363229679e-23  -6.1024639219585368e-24  1.8026195142792592e-26  7.7767960399394263e-25  4.6720091879601088e-25  1.9518753839950302e-25  6.6065616474870059e-26  1.8070570206098939e-26  3.7745413832424219e-27  5.1470479845348196e-28  5.1624836040376415e-30  -2.2490610374718495e-29  -8.6247436601887411e-30  -2.2667599868635033e-30  -4.9751276697660755e-31  -9.7343969542537661e-32  -1.7485957186276300e-32  -2.9262879896071972e-33  -4.5927599339023515e-34  -6.7628648914512171e-35  -9.2836452602247644e-36  -1.1682549197982536e-36  -1.2942949620648871e-37  -1.1182444166329941e-38  -3.2117056487927886e-40  1.6032288503917441e-40  5.4161038495718598e-41  1.2206448471559289e-41  2.3458285368038817e-42  4.1091464460987316e-43  6.7442347923921577e-44  1.0513137398854001e-44  1.5673746723341779e-45  2.2416549273731143e-46  3.0755328871087651e-47  4.0351785771987432e-48  5.0248650164658534e-49  5.8480473025762430e-50  6.1527046915766253e-51  5.3572910301017139e-52  2.5539920085864961e-53  -3.6128060635440847e-54  -1.5092363574360871e-54  -3.4592632276543769e-55  -6.5751683472971132e-56  -1.1329072636250905e-56  -1.8310612592268168e-57  -2.8223230861554349e-58  -4.1857189775454329e-59  -6.0024124319670698e-60  -8.3431556760691763e-61  -1.1246651026071308e-61  -1.4682122665568872e-62  -1.8433507270994220e-63  -2.0816644296346327e-64  0.0000000000000000e+00  0.0000000000000000e+00  8.1080609589486089e-20  5.9480990734563259e-20  2.4358705710587244e-20  3.7393324991865685e-21  -2.3786144183098215e-21  -2.7805245530492082e-21  -1.6596672617831137e-21  -7.2185884085896108e-22  -2.5602227397893222e-22  -6.9645978177941798e-23  -1.0680428721094085e-23  1.6411391923437925e-24  2.1656993843388619e-24  1.1239790231653882e-24  4.2250645999930610e-25  1.2221318307867282e-25  2.7324401523183107e-26  4.6101140123193972e-27  5.1480398422478909e-28  3.0108692666238392e-30  -1.7726265199209131e-29  -6.2792007027912232e-30  -1.5784515967220527e-30  -3.3764267928436380e-31  -6.5002270662461852e-32  -1.1544703146781338e-32  -1.9153678990946362e-33  -2.9855772407624970e-34  -4.3748887308855118e-35  -5.9962006573319834e-36  -7.5793296117880642e-37  -8.5403698273954787e-38  -7.7953429341952769e-39  -3.5096649336849442e-40  7.2198659556081329e-41  2.8742744759021239e-41  6.7263671694291434e-42  1.3122040655462602e-42  2.3151509754973313e-43  3.8140609024143202e-44  5.9576279080541367e-45  8.8924832081201777e-46  1.2728128076641694e-46  1.7476515574988416e-47  2.2955177449181220e-48  2.8639952232179696e-49  3.3450576618004622e-50  3.5450141033721942e-51  3.1438559830517108e-52  1.6422120064164922e-53  -1.7052175353435327e-54  -7.9694582938363633e-55  -1.8637455714789366e-55  -3.5705646145943532e-56  -6.1763393302815734e-57  -1.0004312180976273e-57  -1.5440012761339593e-58  -2.2916578399185053e-59  -3.2879167498893695e-60  -4.5716405558018242e-61  -6.1633257622663831e-62  -8.0227944623299249e-63  -9.5210927928122251e-64  0.0000000000000000e+00  0.0000000000000000e+00  4.7003589819001019e-19  4.5155541428111441e-19  2.3314771032998984e-19  7.7118643301052245e-20  9.3305887154065325e-21  -9.8901069095591100e-21  -8.7048839648654604e-21  -4.6416415321851936e-21  -1.9337307376627356e-21  -6.1133614660806492e-22  -1.3891623519494715e-22  -1.4852365165374164e-23  7.0555271857731900e-24  5.8805575852946971e-24  2.5005819012529794e-24  7.5463132538672875e-25  1.7592575633321233e-25  3.3020399655861200e-26  5.0482349162525550e-27  5.9484204813915506e-28  3.5866103061646167e-29  -6.8758277178413678e-30  -3.3992652584000697e-30  -9.1352168317045724e-31  -1.9879740671438962e-31  -3.8314041432786717e-32  -6.7741415523421934e-33  -1.1173014666966336e-33  -1.7327795367363473e-34  -2.5317996547490988e-35  -3.4717129621614084e-36  -4.4138448248630065e-37  -5.0563760134717424e-38  -4.8400059328374807e-39  -2.8211776152991014e-40  2.4892698220089397e-41  1.3317612721875280e-41  3.2833706716477247e-42  6.5340277551965967e-43  1.1638762012465414e-43  1.9271963770945497e-44  3.0190523690699558e-45  4.5143899429377787e-46  6.4700590647358546e-47  8.8949666813482225e-48  1.1702329995942098e-48  1.4637230635708822e-49  1.7171301552711876e-50  1.8355301413727967e-51  1.6619963412009450e-52  9.5164823204330317e-54  -6.6087408776707438e-55  -3.7003604676626418e-55  -8.8950220665561849e-56  -1.7222108940998275e-56  -2.9948595050040649e-57  -4.8655710710343041e-58  -7.5229425793892692e-59  -1.1178966362629338e-59  -1.6051726570523841e-60  -2.2329093251945964e-61  -3.0030531856598536e-62  -3.7059310416931337e-63  0.0000000000000000e+00  0.0000000000000000e+00  2.0128043320955939e-18  2.7554854740829732e-18  1.7385489739496447e-18  8.0437084001563220e-19  2.2596423455603298e-19  6.6912584140189893e-21  -3.2948780097521202e-20  -2.6217394302433739e-20  -1.2888978799132623e-20  -4.6196414245189819e-21  -1.3192188845019237e-21  -2.6586642787784732e-22  -1.5475463957480976e-24  2.7060430941374489e-23  1.3435818788124985e-23  4.1772356440946606e-24  9.9277303008389695e-25  1.9540822328601650e-25  3.3145715999626775e-26  4.8745171351655965e-27  5.9651584271005171e-28  5.0799690260727471e-29  -5.7900060390396400e-31  -1.5681934425389492e-30  -4.7495890280965616e-31  -1.0659578470529268e-31  -2.0725101495120621e-32  -3.6704731998184130e-33  -6.0503048469574560e-34  -9.3731988722978195e-35  -1.3688753654655329e-35  -1.8796974059540100e-36  -2.4030884131326051e-37  -2.7931698824333396e-38  -2.7790453315529656e-39  -1.9037021220501015e-40  5.5295096611357510e-42  5.6648527323922097e-42  1.4957436721768966e-42  3.0497337292512309e-43  5.4947244836203548e-44  9.1541479543635465e-45  1.4391400387684257e-45  2.1567921971704498e-46  3.0962535491238858e-47  4.2632990720085326e-48  5.6194807516950985e-49  7.0486208240154760e-50  8.3081812088369889e-51  8.9612949118284304e-52  8.2850833077771918e-53  5.1513359075527584e-54  -2.1228716009777614e-55  -1.5953893503837194e-55  -3.9693204915702535e-56  -7.7836485961854375e-57  -1.3621025635203827e-57  -2.2208508500547530e-58  -3.4413404318761253e-59  -5.1210942817372586e-60  -7.3595897736043152e-61  -1.0216680419086408e-61  -1.3048325623733099e-62  0.0000000000000000e+00  0.0000000000000000e+00  3.1421347246698366e-18  1.1888941397101864e-17  1.0722350439777947e-17  6.4202551131686913e-18  2.3557563799833281e-18  5.6897666633704749e-19  -1.4888502935140377e-20  -1.2003410952890809e-19  -7.4468934933042284e-20  -3.1422212500316759e-20  -1.0785295219794919e-20  -2.6747435284316931e-21  -2.8721213089119402e-22  9.4087612104932523e-23  6.1025561085183373e-23  1.9564349490737948e-23  4.6872756213060666e-24  9.4135915844369329e-25  1.6651899214325870e-25  2.6391085681545582e-26  3.7311025303031432e-27  4.5667815527967614e-28  4.3610479402198378e-29  1.6607689658204644e-30  -5.9883295411816654e-31  -2.2394926339208677e-31  -5.3029576589513170e-32  -1.0517510688708995e-32  -1.8770973907703930e-33  -3.1021017861096573e-34  -4.8092123231654844e-35  -7.0290895733468479e-36  -9.6749466455992222e-37  -1.2439521141751455e-37  -1.4643682679209268e-38  -1.5025081829453669e-39  -1.1457048540481677e-40  -5.9456520588118030e-43  2.2542638030651424e-42  6.5017159162003882e-43  1.3638267403891309e-43  2.4893307971150541e-44  4.1759505307542631e-45  6.5916063206607325e-46  9.9041405839315698e-47  1.4245274170751674e-47  1.9648818685985663e-48  2.5952173098470857e-49  3.2647361495348267e-50  3.8665177701825291e-51  4.2073924419846286e-52  3.9673598779736431e-53  2.6468441339609523e-54  -4.9926157009919209e-56  -6.5404252493150053e-56  -1.6959382608555264e-56  -3.3744290209032712e-57  -5.9471076006190297e-58  -9.7353706137077900e-59  -1.5122588053314342e-59  -2.2537096745503488e-60  -3.2335916994260318e-61  -4.2676629802542129e-62  0.0000000000000000e+00  0.0000000000000000e+00  -5.4588675716710406e-17  1.3855443180587200e-17  5.2821934723034699e-17  4.0415317484739601e-17  1.8834873665738084e-17  7.0192367090164994e-18  1.2783555470396077e-18  -3.0820608748113317e-19  -3.5219681194869794e-19  -1.9495363680345615e-19  -7.8788957311603381e-20  -2.1611496614271782e-20  -3.3798049348761534e-21  2.7274215695555231e-23  1.9108256188008508e-22  6.9132751865663111e-23  1.7259817139886375e-23  3.5960191862764382e-24  6.6559271520166819e-25  1.1201393180717842e-25  1.7262318893617338e-26  2.4238143766278455e-27  3.0250335433876445e-28  3.1181825952268962e-29  1.9476612073769602e-30  -1.7280953670501571e-31  -9.7975661086761153e-32  -2.4947022243239314e-32  -5.0739695404498467e-33  -9.1524865535461904e-34  -1.5201944848090143e-34  -2.3633818579684288e-35  -3.4619290769450663e-36  -4.7790430099853928e-37  -6.1775900673086425e-38  -7.3516963473418396e-39  -7.7312100496684456e-40  -6.3552391678837205e-41  -1.7138808691385868e-42  8.4372140556464649e-43  2.7275223193213878e-43  5.9091806062476114e-44  1.0940480681168080e-44  1.8491323430603440e-45  2.9316333786710910e-46  4.4173361416124429e-47  6.3666945099533646e-48  8.7980368846066981e-49  1.1644906662084593e-49  1.4691645917171558e-50  1.7480202118150194e-51  1.9180265199529706e-52  1.8414583025162899e-53  1.3032201808387766e-54  -1.7477295118603173e-57  -2.5809388878968377e-56  -7.0251037011051848e-57  -1.4205052396800202e-57  -2.5228348170686750e-58  -4.1476469004376868e-59  -6.4588902340387674e-60  -9.6162073138572915e-61  -1.3129390757981735e-61  0.0000000000000000e+00  0.0000000000000000e+00  -7.7978757063165536e-16  -3.5949354594235953e-16  1.4387081091238216e-16  1.8647979612016495e-16  1.2876616808326028e-16  6.0818959609820322e-17  1.6015943467881313e-17  1.8190720385830135e-18  -1.0615271037161974e-18  -1.0989753729345430e-18  -5.2398506977780927e-19  -1.5401319785330916e-19  -2.9496664707034401e-20  -3.3245995737279360e-21  3.2716230167923533e-23  1.3017903754732855e-22  4.3244578663101109e-23  1.0453565311710821e-23  2.1518299468765171e-24  3.9574838281772870e-25  6.6358147656186839e-26  1.0210922312025563e-26  1.4354902992332278e-27  1.8099477493669434e-28  1.9432059910275656e-29  1.4724015460518256e-30  -1.9965067897830695e-32  -3.9826925790850569e-32  -1.1166864806779136e-32  -2.3453783861178357e-33  -4.2907387163833943e-34  -7.1761461279217326e-35  -1.1199154834508773e-35  -1.6451673659140782e-36  -2.2785905823356469e-37  -2.9606559388889457e-38  -3.5568123614256064e-39  -3.8155463219117066e-40  -3.3130277149494063e-41  -1.3838973756243276e-42  2.9597198692932907e-43  1.1114631782785680e-43  2.4965457832953473e-44  4.6933235604564658e-45  7.9957007846969651e-46  1.2735222778979472e-46  1.9246421796925766e-47  2.7800266730292942e-48  3.8490401845373301e-49  5.1052327046242550e-50  6.4590787349629624e-51  7.7185950128618595e-52  8.5345383764016260e-53  8.3267883542820828e-54  6.1889052083108236e-55  7.6904958860899251e-57  -9.8720827886213017e-57  -2.8421285992720684e-57  -5.8478665222110389e-58  -1.0470537886294652e-58  -1.7289119969277117e-59  -2.6924724269191433e-60  -3.8181377380561824e-61  0.0000000000000000e+00  0.0000000000000000e+00  -6.6748424800749486e-15  -4.5768238553192979e-15  -7.6467718006733149e-16  4.1327810520162050e-16  7.3678360052462569e-16  4.0935367692597902e-16  1.4179836342952524e-16  3.9814652665277084e-17  1.9301001193381053e-18  -5.6482162856653405e-18  -3.1879130435028297e-18  -9.7774226062301452e-19  -2.0843047712177294e-19  -3.3912022515576485e-20  -4.2236490417791320e-21  -3.0324462034187774e-22  3.3533449250983781e-23  2.0203731314290435e-23  5.4930141506854575e-24  1.1688818909866441e-24  2.1635793991123875e-25  3.6174487085561457e-26  5.5450351773782456e-27  7.8053915559049884e-28  9.9581222358574024e-29  1.1052767033287381e-29  9.3623038506214092e-31  2.0712194532371192e-32  -1.5062645481657224e-32  -4.8011719211425845e-33  -1.0462990284559740e-33  -1.9445640571192326e-34  -3.2786549538368194e-35  -5.1413896871645262e-36  -7.5792753062626348e-37  -1.0534165078407543e-37  -1.3753332979795853e-38  -1.6658328490752579e-39  -1.8163489802333878e-40  -1.6437420669418283e-41  -8.6061653649246743e-43  9.5928800493407278e-44  4.4179766591693103e-44  1.0326910522122449e-44  1.9727937830425948e-45  3.3885947507108491e-46  5.4229782448632941e-47  8.2207452970378878e-48  1.1900832291526014e-48  1.6508872441625026e-49  2.1941886749703882e-50  2.7834903490925565e-51  3.3397402134027887e-52  3.7186035734751266e-53  3.6799714121370099e-54  2.8484752132055899e-55  6.6427380215822759e-57  -3.6756074299581420e-57  -1.1283308718008296e-57  -2.3648364750846711e-58  -4.2692809537959636e-59  -7.0628627176724164e-60  -1.0488176053241618e-60  0.0000000000000000e+00  0.0000000000000000e+00  -4.1674386615815474e-14  -3.2567098908510334e-14  -1.6157220268166616e-14  -3.2007199441058759e-15  2.9996973801933671e-15  2.1617106518583544e-15  1.0948825692053604e-15  4.2349866843613347e-16  6.0983409695871056e-17  -2.4721577783670814e-17  -1.6569307072737858e-17  -5.1291987302806219e-18  -1.1312239752853996e-18  -2.0283016069548003e-19  -3.0803494131547249e-20  -3.8384591076787722e-21  -3.3333673236741420e-22  5.7472992827560480e-25  8.8276226398699405e-24  2.6605076765534602e-24  5.8135657764156066e-25  1.0876105092860159e-25  1.8312189891024577e-26  2.8249248178788371e-27  4.0032878181805108e-28  5.1593073103959298e-29  5.8571382882778215e-30  5.3139030587709527e-31  2.2539356342861247e-32  -5.2470655572078184e-33  -1.9896732631374992e-33  -4.5246559479828575e-34  -8.5595960304982935e-35  -1.4562131088275637e-35  -2.2955605630563270e-36  -3.3967741062922925e-37  -4.7379504475843655e-38  -6.2139447939753707e-39  -7.5805517726770854e-40  -8.3776471047032580e-41  -7.8283999315038912e-42  -4.7140079012837863e-43  2.7721360850974751e-44  1.7179497142711024e-44  4.1941879016559571e-45  8.1465700309188757e-46  1.4110138116950498e-46  2.2690119377892769e-47  3.4502386980129442e-48  5.0059219416543943e-49  6.9574439950230531e-50  9.2654488887763092e-51  1.1783393581738833e-51  1.4190629168172170e-52  1.5899527040957481e-53  1.5931030847169315e-54  1.2753685772483719e-55  4.0832093014024568e-57  -1.3356210084453914e-57  -4.4100025140921800e-58  -9.4206626002563945e-59  -1.7105555161197403e-59  -2.7029845130276307e-60  0.0000000000000000e+00  0.0000000000000000e+00  -1.3598442536879204e-13  -1.4983294882081937e-13  -1.6125514873711347e-13  -4.9957037630872431e-14  2.3055389242504671e-15  7.8426716404824419e-15  7.4958818386814075e-15  3.4383705333210151e-15  6.4967330934589997e-16  -4.5142660491579160e-17  -5.9188716999476498e-17  -1.9118640285283980e-17  -4.3339670096120291e-18  -8.1836112241477746e-19  -1.3501213995122595e-19  -1.9541872200755340e-20  -2.4292762705402116e-21  -2.3554076742003974e-22  -9.3655578827819762e-24  3.1318810270066354e-24  1.1703366863459443e-24  2.7116441902434012e-25  5.1923981062808025e-26  8.8270094250962410e-27  1.3680033850761908e-27  1.9484267731849980e-28  2.5348482874681189e-29  2.9341657565869374e-30  2.7967075330491066e-31  1.5546407794769382e-32  -1.6436942084294417e-33  -7.9915738751011573e-34  -1.9052064117499442e-34  -3.6720436308955431e-35  -6.3065863339159527e-36  -9.9978501778005953e-37  -1.4852720669082189e-37  -2.0790563682340193e-38  -2.7381738947215297e-39  -3.3613798723432295e-40  -3.7570137689432540e-41  -3.6010057267574620e-42  -2.3848684054341310e-43  6.4470733454389227e-45  6.5500385972224339e-45  1.6761088641065617e-45  3.3112276606568399e-46  5.7831457770497744e-47  9.3441913537723611e-48  1.4252089142633832e-48  2.0723639708032558e-49  2.8855766418783364e-50  3.8500474151622721e-51  4.9077071125533167e-52  5.9301973651191469e-53  6.6814160466999363e-54  6.7673850923410726e-55  5.5714724331114279e-56  2.1738124805073126e-57  -4.7444963890760374e-58  -1.7005972361674886e-58  -3.6944415514053234e-59  -6.4293499657608383e-60  0.0000000000000000e+00  0.0000000000000000e+00  4.4022320571693869e-13  -3.4909015886651422e-13  -1.0498738083817246e-12  -3.7220825518045379e-13  -1.2558649069012507e-13  -1.6808438926317094e-15  4.6564510152692183e-14  2.4688582528539204e-14  5.8015242470330820e-15  6.1439059836508972e-16  -4.1053058713805127e-17  -3.4716150820858697e-17  -1.0197322618246776e-17  -2.2975199139787390e-18  -4.4033318085837209e-19  -7.4235586465101989e-20  -1.1095885604421730e-20  -1.4377566518064527e-21  -1.4969160844691585e-22  -8.9447660524930005e-24  9.6734679711832247e-25  4.9313965571189442e-25  1.2075456648099082e-25  2.3607964923931777e-26  4.0601039844583640e-27  6.3456810844268647e-28  9.1043312251548793e-29  1.1946062137639021e-29  1.4033785873804295e-30  1.3858025365742851e-31  8.9656303282210903e-33  -4.3274127183806339e-34  -3.1182772097512889e-34  -7.83510351