<?xml version="1.0"?>
<VTKFile type="UnstructuredGrid"  version="0.1"  >
<UnstructuredGrid>
<Piece  NumberOfPoints="4225" NumberOfCells="8192">
<Points>
<DataArray  type="Float64"  NumberOfComponents="3"  format="ascii">-1 -1 0  -0.96875 -1 0  -0.9375 -1 0  -0.90625 -1 0  -0.875 -1 0  -0.84375 -1 0  -0.8125 -1 0  -0.78125 -1 0  -0.75 -1 0  -0.71875 -1 0  -0.6875 -1 0  -0.65625 -1 0  -0.625 -1 0  -0.59375 -1 0  -0.5625 -1 0  -0.53125 -1 0  -0.5 -1 0  -0.46875 -1 0  -0.4375 -1 0  -0.40625 -1 0  -0.375 -1 0  -0.34375 -1 0  -0.3125 -1 0  -0.28125 -1 0  -0.25 -1 0  -0.21875 -1 0  -0.1875 -1 0  -0.15625 -1 0  -0.125 -1 0  -0.09375 -1 0  -0.0625 -1 0  -0.03125 -1 0  0 -1 0  0.03125 -1 0  0.0625 -1 0  0.09375 -1 0  0.125 -1 0  0.15625 -1 0  0.1875 -1 0  0.21875 -1 0  0.25 -1 0  0.28125 -1 0  0.3125 -1 0  0.34375 -1 0  0.375 -1 0  0.40625 -1 0  0.4375 -1 0  0.46875 -1 0  0.5 -1 0  0.53125 -1 0  0.5625 -1 0  0.59375 -1 0  0.625 -1 0  0.65625 -1 0  0.6875 -1 0  0.71875 -1 0  0.75 -1 0  0.78125 -1 0  0.8125 -1 0  0.84375 -1 0  0.875 -1 0  0.90625 -1 0  0.9375 -1 0  0.96875 -1 0  1 -1 0  -1 -0.96875 0  -0.96875 -0.96875 0  -0.9375 -0.96875 0  -0.90625 -0.96875 0  -0.875 -0.96875 0  -0.84375 -0.96875 0  -0.8125 -0.96875 0  -0.78125 -0.96875 0  -0.75 -0.96875 0  -0.71875 -0.96875 0  -0.6875 -0.96875 0  -0.65625 -0.96875 0  -0.625 -0.96875 0  -0.59375 -0.96875 0  -0.5625 -0.96875 0  -0.53125 -0.96875 0  -0.5 -0.96875 0  -0.46875 -0.96875 0  -0.4375 -0.96875 0  -0.40625 -0.96875 0  -0.375 -0.96875 0  -0.34375 -0.96875 0  -0.3125 -0.96875 0  -0.28125 -0.96875 0  -0.25 -0.96875 0  -0.21875 -0.96875 0  -0.1875 -0.96875 0  -0.15625 -0.96875 0  -0.125 -0.96875 0  -0.09375 -0.96875 0  -0.0625 -0.96875 0  -0.03125 -0.96875 0  0 -0.96875 0  0.03125 -0.96875 0  0.0625 -0.96875 0  0.09375 -0.96875 0  0.125 -0.96875 0  0.15625 -0.96875 0  0.1875 -0.96875 0  0.21875 -0.96875 0  0.25 -0.96875 0  0.28125 -0.96875 0  0.3125 -0.96875 0  0.34375 -0.96875 0  0.375 -0.96875 0  0.40625 -0.96875 0  0.4375 -0.96875 0  0.46875 -0.96875 0  0.5 -0.96875 0  0.53125 -0.96875 0  0.5625 -0.96875 0  0.59375 -0.96875 0  0.625 -0.96875 0  0.65625 -0.96875 0  0.6875 -0.96875 0  0.71875 -0.96875 0  0.75 -0.96875 0  0.78125 -0.96875 0  0.8125 -0.96875 0  0.84375 -0.96875 0  0.875 -0.96875 0  0.90625 -0.96875 0  0.9375 -0.96875 0  0.96875 -0.96875 0  1 -0.96875 0  -1 -0.9375 0  -0.96875 -0.9375 0  -0.9375 -0.9375 0  -0.90625 -0.9375 0  -0.875 -0.9375 0  -0.84375 -0.9375 0  -0.8125 -0.9375 0  -0.78125 -0.9375 0  -0.75 -0.9375 0  -0.71875 -0.9375 0  -0.6875 -0.9375 0  -0.65625 -0.9375 0  -0.625 -0.9375 0  -0.59375 -0.9375 0  -0.5625 -0.9375 0  -0.53125 -0.9375 0  -0.5 -0.9375 0  -0.46875 -0.9375 0  -0.4375 -0.9375 0  -0.40625 -0.9375 0  -0.375 -0.9375 0  -0.34375 -0.9375 0  -0.3125 -0.9375 0  -0.28125 -0.9375 0  -0.25 -0.9375 0  -0.21875 -0.9375 0  -0.1875 -0.9375 0  -0.15625 -0.9375 0  -0.125 -0.9375 0  -0.09375 -0.9375 0  -0.0625 -0.9375 0  -0.03125 -0.9375 0  0 -0.9375 0  0.03125 -0.9375 0  0.0625 -0.9375 0  0.09375 -0.9375 0  0.125 -0.9375 0  0.15625 -0.9375 0  0.1875 -0.9375 0  0.21875 -0.9375 0  0.25 -0.9375 0  0.28125 -0.9375 0  0.3125 -0.9375 0  0.34375 -0.9375 0  0.375 -0.9375 0  0.40625 -0.9375 0  0.4375 -0.9375 0  0.46875 -0.9375 0  0.5 -0.9375 0  0.53125 -0.9375 0  0.5625 -0.9375 0  0.59375 -0.9375 0  0.625 -0.9375 0  0.65625 -0.9375 0  0.6875 -0.9375 0  0.71875 -0.9375 0  0.75 -0.9375 0  0.78125 -0.9375 0  0.8125 -0.9375 0  0.84375 -0.9375 0  0.875 -0.9375 0  0.90625 -0.9375 0  0.9375 -0.9375 0  0.96875 -0.9375 0  1 -0.9375 0  -1 -0.90625 0  -0.96875 -0.90625 0  -0.9375 -0.90625 0  -0.90625 -0.90625 0  -0.875 -0.90625 0  -0.84375 -0.90625 0  -0.8125 -0.90625 0  -0.78125 -0.90625 0  -0.75 -0.90625 0  -0.71875 -0.90625 0  -0.6875 -0.90625 0  -0.65625 -0.90625 0  -0.625 -0.90625 0  -0.59375 -0.90625 0  -0.5625 -0.90625 0  -0.53125 -0.90625 0  -0.5 -0.90625 0  -0.46875 -0.90625 0  -0.4375 -0.90625 0  -0.40625 -0.90625 0  -0.375 -0.90625 0  -0.34375 -0.90625 0  -0.3125 -0.90625 0  -0.28125 -0.90625 0  -0.25 -0.90625 0  -0.21875 -0.90625 0  -0.1875 -0.90625 0  -0.15625 -0.90625 0  -0.125 -0.90625 0  -0.09375 -0.90625 0  -0.0625 -0.90625 0  -0.03125 -0.90625 0  0 -0.90625 0  0.03125 -0.90625 0  0.0625 -0.90625 0  0.09375 -0.90625 0  0.125 -0.90625 0  0.15625 -0.90625 0  0.1875 -0.90625 0  0.21875 -0.90625 0  0.25 -0.90625 0  0.28125 -0.90625 0  0.3125 -0.90625 0  0.34375 -0.90625 0  0.375 -0.90625 0  0.40625 -0.90625 0  0.4375 -0.90625 0  0.46875 -0.90625 0  0.5 -0.90625 0  0.53125 -0.90625 0  0.5625 -0.90625 0  0.59375 -0.90625 0  0.625 -0.90625 0  0.65625 -0.90625 0  0.6875 -0.90625 0  0.71875 -0.90625 0  0.75 -0.90625 0  0.78125 -0.90625 0  0.8125 -0.90625 0  0.84375 -0.90625 0  0.875 -0.90625 0  0.90625 -0.90625 0  0.9375 -0.90625 0  0.96875 -0.90625 0  1 -0.90625 0  -1 -0.875 0  -0.96875 -0.875 0  -0.9375 -0.875 0  -0.90625 -0.875 0  -0.875 -0.875 0  -0.84375 -0.875 0  -0.8125 -0.875 0  -0.78125 -0.875 0  -0.75 -0.875 0  -0.71875 -0.875 0  -0.6875 -0.875 0  -0.65625 -0.875 0  -0.625 -0.875 0  -0.59375 -0.875 0  -0.5625 -0.875 0  -0.53125 -0.875 0  -0.5 -0.875 0  -0.46875 -0.875 0  -0.4375 -0.875 0  -0.40625 -0.875 0  -0.375 -0.875 0  -0.34375 -0.875 0  -0.3125 -0.875 0  -0.28125 -0.875 0  -0.25 -0.875 0  -0.21875 -0.875 0  -0.1875 -0.875 0  -0.15625 -0.875 0  -0.125 -0.875 0  -0.09375 -0.875 0  -0.0625 -0.875 0  -0.03125 -0.875 0  0 -0.875 0  0.03125 -0.875 0  0.0625 -0.875 0  0.09375 -0.875 0  0.125 -0.875 0  0.15625 -0.875 0  0.1875 -0.875 0  0.21875 -0.875 0  0.25 -0.875 0  0.28125 -0.875 0  0.3125 -0.875 0  0.34375 -0.875 0  0.375 -0.875 0  0.40625 -0.875 0  0.4375 -0.875 0  0.46875 -0.875 0  0.5 -0.875 0  0.53125 -0.875 0  0.5625 -0.875 0  0.59375 -0.875 0  0.625 -0.875 0  0.65625 -0.875 0  0.6875 -0.875 0  0.71875 -0.875 0  0.75 -0.875 0  0.78125 -0.875 0  0.8125 -0.875 0  0.84375 -0.875 0  0.875 -0.875 0  0.90625 -0.875 0  0.9375 -0.875 0  0.96875 -0.875 0  1 -0.875 0  -1 -0.84375 0  -0.96875 -0.84375 0  -0.9375 -0.84375 0  -0.90625 -0.84375 0  -0.875 -0.84375 0  -0.84375 -0.84375 0  -0.8125 -0.84375 0  -0.78125 -0.84375 0  -0.75 -0.84375 0  -0.71875 -0.84375 0  -0.6875 -0.84375 0  -0.65625 -0.84375 0  -0.625 -0.84375 0  -0.59375 -0.84375 0  -0.5625 -0.84375 0  -0.53125 -0.84375 0  -0.5 -0.84375 0  -0.46875 -0.84375 0  -0.4375 -0.84375 0  -0.40625 -0.84375 0  -0.375 -0.84375 0  -0.34375 -0.84375 0  -0.3125 -0.84375 0  -0.28125 -0.84375 0  -0.25 -0.84375 0  -0.21875 -0.84375 0  -0.1875 -0.84375 0  -0.15625 -0.84375 0  -0.125 -0.84375 0  -0.09375 -0.84375 0  -0.0625 -0.84375 0  -0.03125 -0.84375 0  0 -0.84375 0  0.03125 -0.84375 0  0.0625 -0.84375 0  0.09375 -0.84375 0  0.125 -0.84375 0  0.15625 -0.84375 0  0.1875 -0.84375 0  0.21875 -0.84375 0  0.25 -0.84375 0  0.28125 -0.84375 0  0.3125 -0.84375 0  0.34375 -0.84375 0  0.375 -0.84375 0  0.40625 -0.84375 0  0.4375 -0.84375 0  0.46875 -0.84375 0  0.5 -0.84375 0  0.53125 -0.84375 0  0.5625 -0.84375 0  0.59375 -0.84375 0  0.625 -0.84375 0  0.65625 -0.84375 0  0.6875 -0.84375 0  0.71875 -0.84375 0  0.75 -0.84375 0  0.78125 -0.84375 0  0.8125 -0.84375 0  0.84375 -0.84375 0  0.875 -0.84375 0  0.90625 -0.84375 0  0.9375 -0.84375 0  0.96875 -0.84375 0  1 -0.84375 0  -1 -0.8125 0  -0.96875 -0.8125 0  -0.9375 -0.8125 0  -0.90625 -0.8125 0  -0.875 -0.8125 0  -0.84375 -0.8125 0  -0.8125 -0.8125 0  -0.78125 -0.8125 0  -0.75 -0.8125 0  -0.71875 -0.8125 0  -0.6875 -0.8125 0  -0.65625 -0.8125 0  -0.625 -0.8125 0  -0.59375 -0.8125 0  -0.5625 -0.8125 0  -0.53125 -0.8125 0  -0.5 -0.8125 0  -0.46875 -0.8125 0  -0.4375 -0.8125 0  -0.40625 -0.8125 0  -0.375 -0.8125 0  -0.34375 -0.8125 0  -0.3125 -0.8125 0  -0.28125 -0.8125 0  -0.25 -0.8125 0  -0.21875 -0.8125 0  -0.1875 -0.8125 0  -0.15625 -0.8125 0  -0.125 -0.8125 0  -0.09375 -0.8125 0  -0.0625 -0.8125 0  -0.03125 -0.8125 0  0 -0.8125 0  0.03125 -0.8125 0  0.0625 -0.8125 0  0.09375 -0.8125 0  0.125 -0.8125 0  0.15625 -0.8125 0  0.1875 -0.8125 0  0.21875 -0.8125 0  0.25 -0.8125 0  0.28125 -0.8125 0  0.3125 -0.8125 0  0.34375 -0.8125 0  0.375 -0.8125 0  0.40625 -0.8125 0  0.4375 -0.8125 0  0.46875 -0.8125 0  0.5 -0.8125 0  0.53125 -0.8125 0  0.5625 -0.8125 0  0.59375 -0.8125 0  0.625 -0.8125 0  0.65625 -0.8125 0  0.6875 -0.8125 0  0.71875 -0.8125 0  0.75 -0.8125 0  0.78125 -0.8125 0  0.8125 -0.8125 0  0.84375 -0.8125 0  0.875 -0.8125 0  0.90625 -0.8125 0  0.9375 -0.8125 0  0.96875 -0.8125 0  1 -0.8125 0  -1 -0.78125 0  -0.96875 -0.78125 0  -0.9375 -0.78125 0  -0.90625 -0.78125 0  -0.875 -0.78125 0  -0.84375 -0.78125 0  -0.8125 -0.78125 0  -0.78125 -0.78125 0  -0.75 -0.78125 0  -0.71875 -0.78125 0  -0.6875 -0.78125 0  -0.65625 -0.78125 0  -0.625 -0.78125 0  -0.59375 -0.78125 0  -0.5625 -0.78125 0  -0.53125 -0.78125 0  -0.5 -0.78125 0  -0.46875 -0.78125 0  -0.4375 -0.78125 0  -0.40625 -0.78125 0  -0.375 -0.78125 0  -0.34375 -0.78125 0  -0.3125 -0.78125 0  -0.28125 -0.78125 0  -0.25 -0.78125 0  -0.21875 -0.78125 0  -0.1875 -0.78125 0  -0.15625 -0.78125 0  -0.125 -0.78125 0  -0.09375 -0.78125 0  -0.0625 -0.78125 0  -0.03125 -0.78125 0  0 -0.78125 0  0.03125 -0.78125 0  0.0625 -0.78125 0  0.09375 -0.78125 0  0.125 -0.78125 0  0.15625 -0.78125 0  0.1875 -0.78125 0  0.21875 -0.78125 0  0.25 -0.78125 0  0.28125 -0.78125 0  0.3125 -0.78125 0  0.34375 -0.78125 0  0.375 -0.78125 0  0.40625 -0.78125 0  0.4375 -0.78125 0  0.46875 -0.78125 0  0.5 -0.78125 0  0.53125 -0.78125 0  0.5625 -0.78125 0  0.59375 -0.78125 0  0.625 -0.78125 0  0.65625 -0.78125 0  0.6875 -0.78125 0  0.71875 -0.78125 0  0.75 -0.78125 0  0.78125 -0.78125 0  0.8125 -0.78125 0  0.84375 -0.78125 0  0.875 -0.78125 0  0.90625 -0.78125 0  0.9375 -0.78125 0  0.96875 -0.78125 0  1 -0.78125 0  -1 -0.75 0  -0.96875 -0.75 0  -0.9375 -0.75 0  -0.90625 -0.75 0  -0.875 -0.75 0  -0.84375 -0.75 0  -0.8125 -0.75 0  -0.78125 -0.75 0  -0.75 -0.75 0  -0.71875 -0.75 0  -0.6875 -0.75 0  -0.65625 -0.75 0  -0.625 -0.75 0  -0.59375 -0.75 0  -0.5625 -0.75 0  -0.53125 -0.75 0  -0.5 -0.75 0  -0.46875 -0.75 0  -0.4375 -0.75 0  -0.40625 -0.75
[...]
<PointData  Scalars="f_10"> 
<DataArray  type="Float64"  Name="f_10"  format="ascii">0.0000000000000000e+00  0.0000000000000000e+00  0.0000000000000000e+00  0.0000000000000000e+00  0.0000000000000000e+00  0.0000000000000000e+00  0.0000000000000000e+00  0.0000000000000000e+00  0.0000000000000000e+00  0.0000000000000000e+00  0.0000000000000000e+00  0.0000000000000000e+00  0.0000000000000000e+00  0.0000000000000000e+00  0.0000000000000000e+00  0.0000000000000000e+00  0.0000000000000000e+00  0.0000000000000000e+00  0.0000000000000000e+00  0.0000000000000000e+00  0.0000000000000000e+00  0.0000000000000000e+00  0.0000000000000000e+00  0.0000000000000000e+00  0.0000000000000000e+00  0.0000000000000000e+00  0.0000000000000000e+00  0.0000000000000000e+00  0.0000000000000000e+00  0.0000000000000000e+00  0.0000000000000000e+00  0.0000000000000000e+00  0.0000000000000000e+00  0.0000000000000000e+00  0.0000000000000000e+00  0.0000000000000000e+00  0.0000000000000000e+00  0.0000000000000000e+00  0.0000000000000000e+00  0.0000000000000000e+00  0.0000000000000000e+00  0.0000000000000000e+00  0.0000000000000000e+00  0.0000000000000000e+00  0.0000000000000000e+00  0.0000000000000000e+00  0.0000000000000000e+00  0.0000000000000000e+00  0.0000000000000000e+00  0.0000000000000000e+00  0.0000000000000000e+00  0.0000000000000000e+00  0.0000000000000000e+00  0.0000000000000000e+00  0.0000000000000000e+00  0.0000000000000000e+00  0.0000000000000000e+00  0.0000000000000000e+00  0.0000000000000000e+00  0.0000000000000000e+00  0.0000000000000000e+00  0.0000000000000000e+00  0.0000000000000000e+00  0.0000000000000000e+00  0.0000000000000000e+00  0.0000000000000000e+00  -3.8215613955151943e-25  5.1404846040803530e-24  5.4071700295063531e-24  3.5424351638727489e-24  1.8391110363076547e-24  8.0289106880287743e-25  3.0646326679597247e-25  1.0312509643303240e-25  2.9806706863078990e-26  7.0430605984544803e-27  1.1051627245773387e-27  -8.1034208618428715e-29  -1.6252683118178285e-28  -8.6270330445843952e-29  -3.4107374278950052e-29  -1.1487450345028311e-29  -3.3959119820621944e-30  -8.7980047419379653e-31  -1.9878606524237653e-31  -3.9218638961520275e-32  -6.8026285325339423e-33  -1.0448175225252494e-33  -1.4168374923401313e-34  -1.6369681941142758e-35  -1.3812383770083252e-36  -5.4389208626508283e-39  3.3363175008750900e-38  1.0333965881128723e-38  2.3244460695063615e-39  4.5430845374287606e-40  8.1672779524524789e-41  1.3855527894590245e-41  2.2486038064172341e-42  3.5193085871014262e-43  5.3393193548658468e-44  7.8787368238621549e-45  1.1331821452895334e-45  1.5905025554501037e-46  2.1792801830150588e-47  2.9135030827304796e-48  3.7947782916635676e-49  4.8016023130290316e-50  5.8732844574054831e-51  6.8865315371221248e-52  7.6221966754232617e-53  7.7190765078711297e-54  6.6109037783196052e-55  3.4419024277459742e-56  -3.0444653977815116e-57  -1.4649563547413263e-57  -3.3902875304466163e-58  -6.4290910709120924e-59  -1.1053727762077804e-59  -1.7893735187799934e-60  -2.7774693485854788e-61  -4.1761740282752949e-62  -6.1205888278266717e-63  -8.7789619012573220e-64  -1.2356562413916079e-64  -1.7097608145306809e-65  -2.3276971752761838e-66  -3.1037883821852524e-67  -3.7518856473650926e-68  0.0000000000000000e+00  0.0000000000000000e+00  -5.2863609172289865e-23  2.4335110168383163e-24  2.3229703632818767e-23  2.0635034124274399e-23  1.2272372083808461e-23  5.8616450194025596e-24  2.4203661168798470e-24  8.7108938744864949e-25  2.7341730706754946e-25  7.4166757738255856e-26  1.5936662008525742e-26  1.8105496851406230e-27  -4.9576316847431309e-28  -4.4678950307184525e-28  -2.0701509783445655e-28  -7.5260845262218908e-29  -2.2935430087172476e-29  -5.9672684536162948e-30  -1.3442233665411378e-30  -2.6651795318168845e-31  -4.7295992440442609e-32  -7.6101122810033169e-33  -1.1153873677617044e-33  -1.4758375360113122e-34  -1.7031634484113537e-35  -1.5319387102914046e-36  -5.0274875946169961e-38  2.1367963220664516e-38  7.5672939378291545e-39  1.7566783007990942e-39  3.4714199369804833e-40  6.2632707719396408e-41  1.0627119450886273e-41  1.7220244090056381e-42  2.6889612865713838e-43  4.0690268454447913e-44  5.9884833988497163e-45  8.5908962970003319e-46  1.2028064653364580e-46  1.6442143131301865e-47  2.1934377715692321e-48  2.8514176374335460e-49  3.6020231119249515e-50  4.4002844528455475e-51  5.1553257244556538e-52  5.7061743643686980e-53  5.7881780154269396e-54  4.9872693692387077e-55  2.6787831211883165e-56  -2.0530152848074445e-57  -1.0518995327453828e-57  -2.4557402635181129e-58  -4.6698791714933148e-59  -8.0367533646267835e-60  -1.3012224134537208e-60  -2.0193452224138213e-61  -3.0350047891270798e-62  -4.4457142167744434e-63  -6.3727776065554830e-64  -8.9639229044843161e-65  -1.2392201905530942e-65  -1.6795512170168789e-66  -2.1023644406327501e-67  0.0000000000000000e+00  0.0000000000000000e+00  -7.5328925179107182e-22  -2.7685223573887636e-22  1.7339776369332089e-23  9.0702843902197936e-23  6.9693557482486866e-23  3.8165168501259082e-23  1.7209691478473657e-23  6.6130005088351183e-24  2.2383625511834467e-24  6.6401274429654685e-25  1.6351105704437053e-25  2.9794157332474514e-26  1.8284830540734875e-27  -1.6867231198581572e-27  -1.1012888405526578e-27  -4.4077908973543667e-28  -1.3636733328686256e-28  -3.4839827024723790e-29  -7.6415462850121862e-30  -1.4835790215592655e-30  -2.6122523513454092e-31  -4.2412911292793339e-32  -6.4008402682402013e-33  -8.9759277531716626e-34  -1.1580453301064080e-34  -1.3370911324715396e-35  -1.2759991578531328e-36  -6.9951992574042084e-38  8.4098550097638837e-39  4.0405379296879932e-39  9.9334264837930828e-40  2.0009602407530315e-40  3.6353910382060455e-41  6.1802117111323522e-42  1.0010215638452416e-42  1.5606032352400478e-43  2.3563804190099155e-44  3.4594417544427433e-45  4.9503811299488723e-46  6.9141797048835173e-47  9.4301596507852210e-48  1.2554555405660808e-48  1.6292338137191066e-49  2.0553739405845062e-50  2.5089472120849485e-51  2.9396928533466373e-52  3.2587563874094997e-53  3.3203217748026160e-54  2.8966383666007011e-55  1.6446574162296526e-56  -9.3778717167491479e-58  -5.5685617007282266e-58  -1.3253033806100932e-58  -2.5373507036737816e-59  -4.3798349760349229e-60  -7.1012028808708404e-61  -1.1026565671841485e-61  -1.6574495043789783e-62  -2.4274807958400227e-63  -3.4785622075337601e-64  -4.8899361144338840e-65  -6.7345864998676510e-66  -8.6161094194815343e-67  0.0000000000000000e+00  0.0000000000000000e+00  -7.7283020139747215e-21  -4.1567175705237478e-21  -1.0384789815018991e-21  1.3674161866614516e-22  3.1438937233918459e-22  2.2353577968353214e-22  1.1303322231727762e-22  4.7157219854542978e-23  1.7227598249136980e-23  5.4483401954040177e-24  1.4643424039819147e-24  3.2597529592101970e-25  4.9830932431305591e-26  -2.0021870556942508e-27  -5.2138717185628372e-27  -2.3660721369912096e-27  -7.3313171749551826e-28  -1.8157305590443454e-28  -3.8472906135155444e-29  -7.2780450695667183e-30  -1.2647740305533213e-30  -2.0542225259079860e-31  -3.1453539533644099e-32  -4.5520594815778727e-33  -6.2102013414459966e-34  -7.9071536654503727e-35  -9.1735147176384702e-36  -9.1320531682347635e-37  -6.2938112989739555e-38  1.7216452894573374e-39  1.8565092099900521e-39  4.9643024991498357e-40  1.0270506553635744e-40  1.8852780465198176e-41  3.2167931848582180e-42  5.2131356553853513e-43  8.1188809973567250e-44  1.2236254171583171e-44  1.7924388157516475e-45  2.5589062604109708e-46  3.5656868377302157e-47  4.8525139367908813e-48  6.4475519395951412e-49  8.3534628750707680e-50  1.0525980237688268e-50  1.2842097227881346e-51  1.5054124828954089e-52  1.6724865401782717e-53  1.7137991199991186e-54  1.5176428178119459e-55  9.1601714568889897e-57  -3.3663886714222572e-58  -2.5908688783307207e-58  -6.3369474555183512e-59  -1.2248101294559159e-59  -2.1233175415153551e-60  -3.4499302531118678e-61  -5.3624356453983586e-62  -8.0637625666116409e-63  -1.1810412526593401e-63  -1.6918092427831936e-64  -2.3702292873919345e-65  -3.0903722542376252e-66  0.0000000000000000e+00  0.0000000000000000e+00  -6.8202576874207585e-20  -4.3344432739177567e-20  -1.5668471343579164e-20  -3.2564766141727359e-21  6.4790820607329355e-22  1.0894286698502021e-21  6.6861039680227889e-22  3.1527490624565716e-22  1.2475496412980115e-22  4.1734001932863569e-23  1.2119297911895613e-23  3.0324650606743229e-24  5.7766157404652689e-25  4.6619131850765380e-26  -1.8876544095310577e-26  -1.0832536344448943e-26  -3.3833555229658080e-27  -8.1540117991376322e-28  -1.6830434712142245e-28  -3.1371363273243050e-29  -5.4378298714819265e-30  -8.8981858180860525e-31  -1.3842710714450426e-31  -2.0530368138644427e-32  -2.9016898467914804e-33  -3.8923771899497211e-34  -4.9091064180440588e-35  -5.7077118431501792e-36  -5.8429152024648320e-37  -4.5644256392499587e-38  -6.7749516507065103e-40  7.6359159030550151e-40  2.3042195847083901e-40  4.9333113523591503e-41  9.1751850827507438e-42  1.5735333905029521e-42  2.5537099202294217e-43  3.9754148204200160e-44  5.9830657108263125e-45  8.7476398878670218e-46  1.2461734275366313e-46  1.7327335505316019e-47  2.3532283105262837e-48  3.1209892319393733e-49  4.0374215916332679e-50  5.0820862805482399e-51  6.1980131116253270e-52  7.2705424808039882e-53  8.0975424425958259e-54  8.3483249699628119e-55  7.5080024895109833e-56  4.8034138458662441e-57  -8.9384544550666028e-59  -1.1192253898400307e-58  -2.8338302044654953e-59  -5.5412655406858287e-60  -9.6568844218307270e-61  -1.5731688102991496e-61  -2.4485057372799893e-62  -3.6840860425838437e-63  -5.3957814887045771e-64  -7.7061263526756390e-65  -1.0239022192178076e-65  0.0000000000000000e+00  0.0000000000000000e+00  -5.3280737651416769e-19  -3.7307407802905732e-19  -1.6761332707615550e-19  -5.4299909378969325e-20  -7.7806204008599289e-21  3.0522084691838353e-21  3.3435107633550385e-21  1.9492475660360453e-21  8.4428030440770424e-22  3.0154549561867970e-22  9.4635557528766140e-23  2.5406634666538165e-23  5.2820449801956035e-24  6.8810391889504911e-25  -9.2846398098256718e-27  -3.5022353910659339e-26  -1.2168352942112087e-26  -2.9892018305852219e-27  -6.2383709881841149e-28  -1.1817258098349682e-28  -2.0895209484626872e-29  -3.4916389543603599e-30  -5.5503214529895151e-31  -8.4266046813763381e-32  -1.2241962425683347e-32  -1.7011959322335075e-33  -2.2540533490253373e-34  -2.8252895573053672e-35  -3.2942825861636351e-36  -3.4418584396614349e-37  -2.9028532173357950e-38  -1.1029917030698372e-39  2.8239947880572050e-40  1.0141105530419879e-40  2.2634520435815936e-41  4.2759931007635274e-42  7.3803545430163303e-43  1.2004571671620173e-43  1.8690465766059856e-44  2.8102281733759800e-45  4.1023766519817763e-46  5.8335045998289819e-47  8.0956842285565772e-48  1.0974434522805495e-48  1.4530613887925880e-49  1.8771487340579121e-50  2.3606552103001060e-51  2.8782345973169430e-52  3.3788794009958656e-53  3.7727681438383528e-54  3.9131597975949271e-55  3.5719214024268104e-56  2.4070121306979049e-57  -8.0008094804533095e-60  -4.5985885797511961e-59  -1.2138172689567969e-59  -2.4053747871414123e-60  -4.2169786184192652e-61  -6.8903538733507125e-62  -1.0740632146522996e-62  -1.6169796689565255e-63  -2.3622081044016570e-64  -3.2035384903652905e-65  0.0000000000000000e+00  0.0000000000000000e+00  -3.5719426043183062e-18  -2.8278495575365949e-18  -1.5253261908300715e-18  -5.7415008692401427e-19  -1.4821388605517798e-19  -1.8516381774074758e-20  1.1667370697370180e-20  1.0719333731370866e-20  5.2419006887769535e-21  2.0649433683514318e-21  7.0331705031828891e-22  1.9682088498273922e-22  4.2723119385317434e-23  6.8066491166252706e-24  6.7222862973939437e-25  -1.2756914557429186e-26  -2.5612558447563928e-26  -8.0307229268042906e-27  -1.8861088219902171e-27  -3.8532640526163358e-28  -7.1719789894264762e-29  -1.2431848554861482e-29  -2.0346079033140580e-30  -3.1719189625427066e-31  -4.7349121818917433e-32  -6.7837622498534590e-33  -9.3259775251968820e-34  -1.2262992546490359e-34  -1.5311312783740229e-35  -1.7890842259881412e-36  -1.8966732624565978e-37  -1.6829672368717261e-38  -8.8046169976200422e-40  9.1198415562306014e-41  4.2751828089834739e-41  1.0025347990561735e-41  1.9278779009962576e-42  3.3522558818606510e-43  5.4685476510605544e-44  8.5199236135371618e-45  1.2803383925875929e-45  1.8668209946627742e-46  2.6505567777331881e-47  3.6723815615559100e-48  4.9701878940780939e-49  6.5710206895561905e-50  8.4785101445026320e-51  1.0653750017368270e-51  1.2987153821198040e-52  1.5258128985838955e-53  1.7078585721289562e-54  1.7815347917008233e-55  1.6485488074456146e-56  1.1617518558921043e-57  1.0703213532937767e-59  -1.8199167595998841e-59  -5.0428952522490356e-60  -1.0141476514369219e-60  -1.7895009986231066e-61  -2.9334524836790881e-62  -4.5796209370111489e-63  -6.8812308337540401e-64  -9.5555941165695902e-65  0.0000000000000000e+00  0.0000000000000000e+00  -1.9313801185690755e-17  -1.9236307158217889e-17  -1.1954766980323548e-17  -5.0186459296930887e-18  -1.7400503979584572e-18  -4.2260106316511811e-19  -9.1610936699650718e-21  4.4939173240837367e-20  2.8849728450698920e-20  1.3560105889208427e-20  5.0132735343627193e-21  1.4230204943643019e-21  3.1257100126779891e-22  5.4442375698214542e-23  7.6365548943907025e-24  8.2308000679084023e-25  4.3920007428132359e-26  -9.2036235764748959e-27  -4.1239709453940395e-27  -1.0415865271786352e-27  -2.1491481037244683e-28  -3.9637708735736631e-29  -6.7826978189870490e-30  -1.0965375075388390e-30  -1.6908103624300939e-31  -2.4992619860824504e-32  -3.5493204048612102e-33  -4.8425952355507778e-34  -6.3316742281976150e-35  -7.8847104480508781e-36  -9.2333350943804412e-37  -9.9005172876760369e-38  -9.1044315202826419e-39  -5.6321474536409491e-40  2.3231302021409121e-41  1.7364477368137961e-41  4.3133009814960518e-42  8.4584937593401747e-43  1.4829267055818744e-43  2.4274583770370108e-44  3.7860884641428191e-45  5.6886446046832991e-46  8.2873536153795974e-47  1.1752247082260561e-47  1.6260473307088892e-48  2.1976297472407072e-49  2.9017358796675653e-50  3.7401222314508103e-51  4.6964340856254243e-52  5.7243152688372931e-53  6.7304149084210522e-54  7.5506356887874043e-55  7.9175812434351729e-56  7.4167331859192297e-57  5.4284418637293236e-58  1.0523881183563704e-59  -6.9891723154154615e-60  -2.0473239833212379e-60  -4.1826669219791943e-61  -7.4307996678888624e-62  -1.2220575007564667e-62  -1.9060200437463908e-63  -2.7250190354269368e-64  0.0000000000000000e+00  0.0000000000000000e+00  -6.4185447313437325e-17  -1.1143011322876989e-16  -7.9878660343275422e-17  -3.9698398912997357e-17  -1.6555811688037439e-17  -4.7052623326917060e-18  -7.9103529808653411e-19  3.2759268006317940e-20  1.3727476614542686e-19  8.7107347614199278e-20  3.3843748387040356e-20  9.3617230400050301e-21  2.0049248741092807e-21  3.5440831754252764e-22  5.4027434217196438e-23  7.1689899063528007e-24  7.8879304849771509e-25  5.7914085979333029e-26  -1.8681110490287738e-27  -1.9160052102323615e-27  -5.2148864905596067e-28  -1.0952937899698181e-28  -2.0286882917315974e-29  -3.4654629769491799e-30  -5.5742742283823823e-31  -8.5386035426018846e-32  -1.2534329171185366e-32  -1.7688601950267624e-33  -2.4010156607367129e-34  -3.1279864338508079e-35  -3.8891677693929067e-36  -4.5629548370353040e-37  -4.9356954804480704e-38  -4.6594603965213420e-39  -3.1968401813993243e-40  2.4877738258410906e-42  6.8190482698340866e-42  1.8103244784236259e-42  3.6255677997778895e-43  6.4122426923441249e-44  1.0536668487639254e-44  1.6457443963739365e-45  2.4731118566191548e-46  3.6008469995178174e-47  5.1014720367817671e-48  7.0504135012951302e-49  9.5175686957791987e-50  1.2553156566864863e-50  1.6165398292175052e-51  2.0286780759279115e-52  2.4724688680334913e-53  2.9091026628034789e-54  3.2704077976430205e-55  3.4454278150081065e-56  3.2623860942328208e-57  2.4648553582046796e-58  6.8077978192327722e-60  -2.6171388000564200e-60  -8.1612383729555179e-61  -1.6950220560041170e-61  -3.0319030478681929e-62  -4.9898777002685927e-63  -7.4133831720746353e-64  0.0000000000000000e+00  0.0000000000000000e+00  2.0089838094029120e-16  -4.7251988158381986e-16  -4.3779526758129192e-16  -2.8508680961459707e-16  -1.3280452203884472e-16  -4.2776266877117385e-17  -1.1568318224212895e-17  -1.8701016014467153e-18  5.6170445888483548e-19  5.3102373259404015e-19  2.0323269702081040e-19  5.2652857015848662e-20  1.0691397675146076e-20  1.8497986456906399e-21  2.8591887688163773e-22  4.0068011810992483e-23  5.0429709469744910e-24  5.4991069488877858e-25  4.5756517477140090e-26  9.1801077191899147e-28  -7.6122990324763657e-28  -2.4070829626636648e-28  -5.2552861092872715e-29  -9.8377713982295780e-30  -1.6819984121163333e-30  -2.6985582820590772e-31  -4.1182259268101042e-32  -6.0211101490825105e-33  -8.4633613799139806e-34  -1.1446761606801919e-34  -1.4872677044117100e-35  -1.8473345749955920e-36  -2.1713300522097515e-37  -2.3654802114014365e-38  -2.2779641784813143e-39  -1.6757108054201340e-40  -2.1490301356136098e-42  2.5952523152584963e-42  7.4353938226998668e-43  1.5224677909127688e-43  2.7173060151596601e-44  4.4832771185104855e-45  7.0141300166927646e-46  1.0544357673858116e-46  1.5347470921918637e-47  2.1727604197236196e-48  3.0000561292819406e-49  4.0458855893396447e-50  5.3313306441286809e-51  6.8601226471122007e-52  8.6048090545138901e-53  1.0486565364566228e-53  1.2346481799771324e-54  1.3905607005874732e-55  1.4710408604797410e-56  1.4059628001088455e-57  1.0907800368770377e-58  3.7400437863797187e-60  -9.5877958643283297e-61  -3.2049470190799961e-61  -6.7684916275293981e-62  -1.2157888961430885e-62  -1.9090075005798870e-63  0.0000000000000000e+00  0.0000000000000000e+00  5.3173470203571781e-15  8.6261214950764157e-18  -1.5642474985527516e-15  -1.7996776316296451e-15  -9.2494694375872592e-16  -3.5777474993346336e-16  -1.2294386046982349e-16  -2.5162933646834263e-17  1.2333418348240432e-18  2.6357335772144184e-18  9.6757639211070401e-19  2.3295391709495938e-19  4.5109605850955652e-20  7.7248043568279484e-21  1.2191414715537561e-21  1.7915008112871600e-22  2.4474649392588219e-23  3.0738935032556366e-24  3.4288233629489827e-25  3.0777487244124809e-26  1.3491072693234683e-27  -2.7279079651884989e-28  -1.0534042230746743e-28  -2.3970553972873761e-29  -4.5510849175464063e-30  -7.8187706634786953e-31  -1.2550360274622629e-31  -1.9119948222578820e-32  -2.7879320929031478e-33  -3.9076610596195751e-34  -5.2722291461100419e-35  -6.8384487883160028e-36  -8.4895552757569435e-37  -9.9942607097000456e-38  -1.0950420689728945e-38  -1.0709687926002769e-39  -8.2802288520238949e-41  -2.2047046211024106e-42  9.5888617827827752e-43  2.9963514562842422e-43  6.2773143197816181e-44  1.1307570644906632e-44  1.8734132546277317e-45  2.9362390324594797e-46  4.4164651867911009e-47  6.4272487835826278e-48  9.0941777309940687e-49  1.2547468999176526e-49  1.6907674373684908e-50  2.2261912767345279e-51  2.8626634529679053e-52  3.5891665159995981e-53  4.3738740813723839e-54  5.1525902498314097e-55  5.8126951152960592e-56  6.1712711819808130e-57  5.9458183864630484e-58  4.7156902013424204e-59  1.8721262188030146e-60  -3.4453793950441653e-61  -1.2426560758097328e-61  -2.6614157227130745e-62  -4.5745183631988777e-63  0.0000000000000000e+00  0.0000000000000000e+00  5.4756637595529132e-14  3.3169008485223207e-14  6.8381422368997379e-16  -9.3274194001487765e-15  -5.4390560817431219e-15  -2.7813141152063091e-15  -1.1016433810516603e-15  -2.4811122553933550e-16  -1.7596139334026531e-17  6.9432888009597377e-18  2.9858592950787491e-18  7.2706951404097033e-19  1.4541683556010542e-19  2.6409715611036768e-20  4.4463652935995208e-21  6.9568458991773068e-22  1.0138205878181960e-22  1.3728969758555486e-23  1.7090001369844766e-24  1.9071846828684835e-25  1.7794094357784140e-26  1.0245122507208817e-27  -8.1364718903569350e-29  -4.3749317915895905e-29  -1.0508237778045078e-29  -2.0298749652410937e-30  -3.5076556288406707e-31  -5.6379584573635818e-32  -8.5846116754191326e-33  -1.2500239496070150e-33  -1.7490324375325565e-34  -2.3557419141737803e-35  -3.0517193953071502e-36  -3.7875197586055416e-37  -