<?xml version="1.0"?>
<VTKFile type="UnstructuredGrid"  version="0.1"  >
<UnstructuredGrid>
<Piece  NumberOfPoints="4225" NumberOfCells="8192">
<Points>
<DataArray  type="Float64"  NumberOfComponents="3"  format="ascii">-1 -1 0  -0.96875 -1 0  -0.9375 -1 0  -0.90625 -1 0  -0.875 -1 0  -0.84375 -1 0  -0.8125 -1 0  -0.78125 -1 0  -0.75 -1 0  -0.71875 -1 0  -0.6875 -1 0  -0.65625 -1 0  -0.625 -1 0  -0.59375 -1 0  -0.5625 -1 0  -0.53125 -1 0  -0.5 -1 0  -0.46875 -1 0  -0.4375 -1 0  -0.40625 -1 0  -0.375 -1 0  -0.34375 -1 0  -0.3125 -1 0  -0.28125 -1 0  -0.25 -1 0  -0.21875 -1 0  -0.1875 -1 0  -0.15625 -1 0  -0.125 -1 0  -0.09375 -1 0  -0.0625 -1 0  -0.03125 -1 0  0 -1 0  0.03125 -1 0  0.0625 -1 0  0.09375 -1 0  0.125 -1 0  0.15625 -1 0  0.1875 -1 0  0.21875 -1 0  0.25 -1 0  0.28125 -1 0  0.3125 -1 0  0.34375 -1 0  0.375 -1 0  0.40625 -1 0  0.4375 -1 0  0.46875 -1 0  0.5 -1 0  0.53125 -1 0  0.5625 -1 0  0.59375 -1 0  0.625 -1 0  0.65625 -1 0  0.6875 -1 0  0.71875 -1 0  0.75 -1 0  0.78125 -1 0  0.8125 -1 0  0.84375 -1 0  0.875 -1 0  0.90625 -1 0  0.9375 -1 0  0.96875 -1 0  1 -1 0  -1 -0.96875 0  -0.96875 -0.96875 0  -0.9375 -0.96875 0  -0.90625 -0.96875 0  -0.875 -0.96875 0  -0.84375 -0.96875 0  -0.8125 -0.96875 0  -0.78125 -0.96875 0  -0.75 -0.96875 0  -0.71875 -0.96875 0  -0.6875 -0.96875 0  -0.65625 -0.96875 0  -0.625 -0.96875 0  -0.59375 -0.96875 0  -0.5625 -0.96875 0  -0.53125 -0.96875 0  -0.5 -0.96875 0  -0.46875 -0.96875 0  -0.4375 -0.96875 0  -0.40625 -0.96875 0  -0.375 -0.96875 0  -0.34375 -0.96875 0  -0.3125 -0.96875 0  -0.28125 -0.96875 0  -0.25 -0.96875 0  -0.21875 -0.96875 0  -0.1875 -0.96875 0  -0.15625 -0.96875 0  -0.125 -0.96875 0  -0.09375 -0.96875 0  -0.0625 -0.96875 0  -0.03125 -0.96875 0  0 -0.96875 0  0.03125 -0.96875 0  0.0625 -0.96875 0  0.09375 -0.96875 0  0.125 -0.96875 0  0.15625 -0.96875 0  0.1875 -0.96875 0  0.21875 -0.96875 0  0.25 -0.96875 0  0.28125 -0.96875 0  0.3125 -0.96875 0  0.34375 -0.96875 0  0.375 -0.96875 0  0.40625 -0.96875 0  0.4375 -0.96875 0  0.46875 -0.96875 0  0.5 -0.96875 0  0.53125 -0.96875 0  0.5625 -0.96875 0  0.59375 -0.96875 0  0.625 -0.96875 0  0.65625 -0.96875 0  0.6875 -0.96875 0  0.71875 -0.96875 0  0.75 -0.96875 0  0.78125 -0.96875 0  0.8125 -0.96875 0  0.84375 -0.96875 0  0.875 -0.96875 0  0.90625 -0.96875 0  0.9375 -0.96875 0  0.96875 -0.96875 0  1 -0.96875 0  -1 -0.9375 0  -0.96875 -0.9375 0  -0.9375 -0.9375 0  -0.90625 -0.9375 0  -0.875 -0.9375 0  -0.84375 -0.9375 0  -0.8125 -0.9375 0  -0.78125 -0.9375 0  -0.75 -0.9375 0  -0.71875 -0.9375 0  -0.6875 -0.9375 0  -0.65625 -0.9375 0  -0.625 -0.9375 0  -0.59375 -0.9375 0  -0.5625 -0.9375 0  -0.53125 -0.9375 0  -0.5 -0.9375 0  -0.46875 -0.9375 0  -0.4375 -0.9375 0  -0.40625 -0.9375 0  -0.375 -0.9375 0  -0.34375 -0.9375 0  -0.3125 -0.9375 0  -0.28125 -0.9375 0  -0.25 -0.9375 0  -0.21875 -0.9375 0  -0.1875 -0.9375 0  -0.15625 -0.9375 0  -0.125 -0.9375 0  -0.09375 -0.9375 0  -0.0625 -0.9375 0  -0.03125 -0.9375 0  0 -0.9375 0  0.03125 -0.9375 0  0.0625 -0.9375 0  0.09375 -0.9375 0  0.125 -0.9375 0  0.15625 -0.9375 0  0.1875 -0.9375 0  0.21875 -0.9375 0  0.25 -0.9375 0  0.28125 -0.9375 0  0.3125 -0.9375 0  0.34375 -0.9375 0  0.375 -0.9375 0  0.40625 -0.9375 0  0.4375 -0.9375 0  0.46875 -0.9375 0  0.5 -0.9375 0  0.53125 -0.9375 0  0.5625 -0.9375 0  0.59375 -0.9375 0  0.625 -0.9375 0  0.65625 -0.9375 0  0.6875 -0.9375 0  0.71875 -0.9375 0  0.75 -0.9375 0  0.78125 -0.9375 0  0.8125 -0.9375 0  0.84375 -0.9375 0  0.875 -0.9375 0  0.90625 -0.9375 0  0.9375 -0.9375 0  0.96875 -0.9375 0  1 -0.9375 0  -1 -0.90625 0  -0.96875 -0.90625 0  -0.9375 -0.90625 0  -0.90625 -0.90625 0  -0.875 -0.90625 0  -0.84375 -0.90625 0  -0.8125 -0.90625 0  -0.78125 -0.90625 0  -0.75 -0.90625 0  -0.71875 -0.90625 0  -0.6875 -0.90625 0  -0.65625 -0.90625 0  -0.625 -0.90625 0  -0.59375 -0.90625 0  -0.5625 -0.90625 0  -0.53125 -0.90625 0  -0.5 -0.90625 0  -0.46875 -0.90625 0  -0.4375 -0.90625 0  -0.40625 -0.90625 0  -0.375 -0.90625 0  -0.34375 -0.90625 0  -0.3125 -0.90625 0  -0.28125 -0.90625 0  -0.25 -0.90625 0  -0.21875 -0.90625 0  -0.1875 -0.90625 0  -0.15625 -0.90625 0  -0.125 -0.90625 0  -0.09375 -0.90625 0  -0.0625 -0.90625 0  -0.03125 -0.90625 0  0 -0.90625 0  0.03125 -0.90625 0  0.0625 -0.90625 0  0.09375 -0.90625 0  0.125 -0.90625 0  0.15625 -0.90625 0  0.1875 -0.90625 0  0.21875 -0.90625 0  0.25 -0.90625 0  0.28125 -0.90625 0  0.3125 -0.90625 0  0.34375 -0.90625 0  0.375 -0.90625 0  0.40625 -0.90625 0  0.4375 -0.90625 0  0.46875 -0.90625 0  0.5 -0.90625 0  0.53125 -0.90625 0  0.5625 -0.90625 0  0.59375 -0.90625 0  0.625 -0.90625 0  0.65625 -0.90625 0  0.6875 -0.90625 0  0.71875 -0.90625 0  0.75 -0.90625 0  0.78125 -0.90625 0  0.8125 -0.90625 0  0.84375 -0.90625 0  0.875 -0.90625 0  0.90625 -0.90625 0  0.9375 -0.90625 0  0.96875 -0.90625 0  1 -0.90625 0  -1 -0.875 0  -0.96875 -0.875 0  -0.9375 -0.875 0  -0.90625 -0.875 0  -0.875 -0.875 0  -0.84375 -0.875 0  -0.8125 -0.875 0  -0.78125 -0.875 0  -0.75 -0.875 0  -0.71875 -0.875 0  -0.6875 -0.875 0  -0.65625 -0.875 0  -0.625 -0.875 0  -0.59375 -0.875 0  -0.5625 -0.875 0  -0.53125 -0.875 0  -0.5 -0.875 0  -0.46875 -0.875 0  -0.4375 -0.875 0  -0.40625 -0.875 0  -0.375 -0.875 0  -0.34375 -0.875 0  -0.3125 -0.875 0  -0.28125 -0.875 0  -0.25 -0.875 0  -0.21875 -0.875 0  -0.1875 -0.875 0  -0.15625 -0.875 0  -0.125 -0.875 0  -0.09375 -0.875 0  -0.0625 -0.875 0  -0.03125 -0.875 0  0 -0.875 0  0.03125 -0.875 0  0.0625 -0.875 0  0.09375 -0.875 0  0.125 -0.875 0  0.15625 -0.875 0  0.1875 -0.875 0  0.21875 -0.875 0  0.25 -0.875 0  0.28125 -0.875 0  0.3125 -0.875 0  0.34375 -0.875 0  0.375 -0.875 0  0.40625 -0.875 0  0.4375 -0.875 0  0.46875 -0.875 0  0.5 -0.875 0  0.53125 -0.875 0  0.5625 -0.875 0  0.59375 -0.875 0  0.625 -0.875 0  0.65625 -0.875 0  0.6875 -0.875 0  0.71875 -0.875 0  0.75 -0.875 0  0.78125 -0.875 0  0.8125 -0.875 0  0.84375 -0.875 0  0.875 -0.875 0  0.90625 -0.875 0  0.9375 -0.875 0  0.96875 -0.875 0  1 -0.875 0  -1 -0.84375 0  -0.96875 -0.84375 0  -0.9375 -0.84375 0  -0.90625 -0.84375 0  -0.875 -0.84375 0  -0.84375 -0.84375 0  -0.8125 -0.84375 0  -0.78125 -0.84375 0  -0.75 -0.84375 0  -0.71875 -0.84375 0  -0.6875 -0.84375 0  -0.65625 -0.84375 0  -0.625 -0.84375 0  -0.59375 -0.84375 0  -0.5625 -0.84375 0  -0.53125 -0.84375 0  -0.5 -0.84375 0  -0.46875 -0.84375 0  -0.4375 -0.84375 0  -0.40625 -0.84375 0  -0.375 -0.84375 0  -0.34375 -0.84375 0  -0.3125 -0.84375 0  -0.28125 -0.84375 0  -0.25 -0.84375 0  -0.21875 -0.84375 0  -0.1875 -0.84375 0  -0.15625 -0.84375 0  -0.125 -0.84375 0  -0.09375 -0.84375 0  -0.0625 -0.84375 0  -0.03125 -0.84375 0  0 -0.84375 0  0.03125 -0.84375 0  0.0625 -0.84375 0  0.09375 -0.84375 0  0.125 -0.84375 0  0.15625 -0.84375 0  0.1875 -0.84375 0  0.21875 -0.84375 0  0.25 -0.84375 0  0.28125 -0.84375 0  0.3125 -0.84375 0  0.34375 -0.84375 0  0.375 -0.84375 0  0.40625 -0.84375 0  0.4375 -0.84375 0  0.46875 -0.84375 0  0.5 -0.84375 0  0.53125 -0.84375 0  0.5625 -0.84375 0  0.59375 -0.84375 0  0.625 -0.84375 0  0.65625 -0.84375 0  0.6875 -0.84375 0  0.71875 -0.84375 0  0.75 -0.84375 0  0.78125 -0.84375 0  0.8125 -0.84375 0  0.84375 -0.84375 0  0.875 -0.84375 0  0.90625 -0.84375 0  0.9375 -0.84375 0  0.96875 -0.84375 0  1 -0.84375 0  -1 -0.8125 0  -0.96875 -0.8125 0  -0.9375 -0.8125 0  -0.90625 -0.8125 0  -0.875 -0.8125 0  -0.84375 -0.8125 0  -0.8125 -0.8125 0  -0.78125 -0.8125 0  -0.75 -0.8125 0  -0.71875 -0.8125 0  -0.6875 -0.8125 0  -0.65625 -0.8125 0  -0.625 -0.8125 0  -0.59375 -0.8125 0  -0.5625 -0.8125 0  -0.53125 -0.8125 0  -0.5 -0.8125 0  -0.46875 -0.8125 0  -0.4375 -0.8125 0  -0.40625 -0.8125 0  -0.375 -0.8125 0  -0.34375 -0.8125 0  -0.3125 -0.8125 0  -0.28125 -0.8125 0  -0.25 -0.8125 0  -0.21875 -0.8125 0  -0.1875 -0.8125 0  -0.15625 -0.8125 0  -0.125 -0.8125 0  -0.09375 -0.8125 0  -0.0625 -0.8125 0  -0.03125 -0.8125 0  0 -0.8125 0  0.03125 -0.8125 0  0.0625 -0.8125 0  0.09375 -0.8125 0  0.125 -0.8125 0  0.15625 -0.8125 0  0.1875 -0.8125 0  0.21875 -0.8125 0  0.25 -0.8125 0  0.28125 -0.8125 0  0.3125 -0.8125 0  0.34375 -0.8125 0  0.375 -0.8125 0  0.40625 -0.8125 0  0.4375 -0.8125 0  0.46875 -0.8125 0  0.5 -0.8125 0  0.53125 -0.8125 0  0.5625 -0.8125 0  0.59375 -0.8125 0  0.625 -0.8125 0  0.65625 -0.8125 0  0.6875 -0.8125 0  0.71875 -0.8125 0  0.75 -0.8125 0  0.78125 -0.8125 0  0.8125 -0.8125 0  0.84375 -0.8125 0  0.875 -0.8125 0  0.90625 -0.8125 0  0.9375 -0.8125 0  0.96875 -0.8125 0  1 -0.8125 0  -1 -0.78125 0  -0.96875 -0.78125 0  -0.9375 -0.78125 0  -0.90625 -0.78125 0  -0.875 -0.78125 0  -0.84375 -0.78125 0  -0.8125 -0.78125 0  -0.78125 -0.78125 0  -0.75 -0.78125 0  -0.71875 -0.78125 0  -0.6875 -0.78125 0  -0.65625 -0.78125 0  -0.625 -0.78125 0  -0.59375 -0.78125 0  -0.5625 -0.78125 0  -0.53125 -0.78125 0  -0.5 -0.78125 0  -0.46875 -0.78125 0  -0.4375 -0.78125 0  -0.40625 -0.78125 0  -0.375 -0.78125 0  -0.34375 -0.78125 0  -0.3125 -0.78125 0  -0.28125 -0.78125 0  -0.25 -0.78125 0  -0.21875 -0.78125 0  -0.1875 -0.78125 0  -0.15625 -0.78125 0  -0.125 -0.78125 0  -0.09375 -0.78125 0  -0.0625 -0.78125 0  -0.03125 -0.78125 0  0 -0.78125 0  0.03125 -0.78125 0  0.0625 -0.78125 0  0.09375 -0.78125 0  0.125 -0.78125 0  0.15625 -0.78125 0  0.1875 -0.78125 0  0.21875 -0.78125 0  0.25 -0.78125 0  0.28125 -0.78125 0  0.3125 -0.78125 0  0.34375 -0.78125 0  0.375 -0.78125 0  0.40625 -0.78125 0  0.4375 -0.78125 0  0.46875 -0.78125 0  0.5 -0.78125 0  0.53125 -0.78125 0  0.5625 -0.78125 0  0.59375 -0.78125 0  0.625 -0.78125 0  0.65625 -0.78125 0  0.6875 -0.78125 0  0.71875 -0.78125 0  0.75 -0.78125 0  0.78125 -0.78125 0  0.8125 -0.78125 0  0.84375 -0.78125 0  0.875 -0.78125 0  0.90625 -0.78125 0  0.9375 -0.78125 0  0.96875 -0.78125 0  1 -0.78125 0  -1 -0.75 0  -0.96875 -0.75 0  -0.9375 -0.75 0  -0.90625 -0.75 0  -0.875 -0.75 0  -0.84375 -0.75 0  -0.8125 -0.75 0  -0.78125 -0.75 0  -0.75 -0.75 0  -0.71875 -0.75 0  -0.6875 -0.75 0  -0.65625 -0.75 0  -0.625 -0.75 0  -0.59375 -0.75 0  -0.5625 -0.75 0  -0.53125 -0.75 0  -0.5 -0.75 0  -0.46875 -0.75 0  -0.4375 -0.75 0  -0.40625 -0.75
[...]
<PointData  Scalars="f_10"> 
<DataArray  type="Float64"  Name="f_10"  format="ascii">0.0000000000000000e+00  0.0000000000000000e+00  0.0000000000000000e+00  0.0000000000000000e+00  0.0000000000000000e+00  0.0000000000000000e+00  0.0000000000000000e+00  0.0000000000000000e+00  0.0000000000000000e+00  0.0000000000000000e+00  0.0000000000000000e+00  0.0000000000000000e+00  0.0000000000000000e+00  0.0000000000000000e+00  0.0000000000000000e+00  0.0000000000000000e+00  0.0000000000000000e+00  0.0000000000000000e+00  0.0000000000000000e+00  0.0000000000000000e+00  0.0000000000000000e+00  0.0000000000000000e+00  0.0000000000000000e+00  0.0000000000000000e+00  0.0000000000000000e+00  0.0000000000000000e+00  0.0000000000000000e+00  0.0000000000000000e+00  0.0000000000000000e+00  0.0000000000000000e+00  0.0000000000000000e+00  0.0000000000000000e+00  0.0000000000000000e+00  0.0000000000000000e+00  0.0000000000000000e+00  0.0000000000000000e+00  0.0000000000000000e+00  0.0000000000000000e+00  0.0000000000000000e+00  0.0000000000000000e+00  0.0000000000000000e+00  0.0000000000000000e+00  0.0000000000000000e+00  0.0000000000000000e+00  0.0000000000000000e+00  0.0000000000000000e+00  0.0000000000000000e+00  0.0000000000000000e+00  0.0000000000000000e+00  0.0000000000000000e+00  0.0000000000000000e+00  0.0000000000000000e+00  0.0000000000000000e+00  0.0000000000000000e+00  0.0000000000000000e+00  0.0000000000000000e+00  0.0000000000000000e+00  0.0000000000000000e+00  0.0000000000000000e+00  0.0000000000000000e+00  0.0000000000000000e+00  0.0000000000000000e+00  0.0000000000000000e+00  0.0000000000000000e+00  0.0000000000000000e+00  0.0000000000000000e+00  1.5456240870334215e-24  1.1617235613226997e-24  5.9834712421525318e-25  2.5495185871798887e-25  9.4281105656376466e-26  3.0306754061617255e-26  8.3565499511550892e-27  1.8072065255982213e-27  1.8142009239664469e-28  -8.7149287887951572e-29  -7.3401209271905566e-29  -3.6130056629228417e-29  -1.4440272191513409e-29  -5.0388630752399177e-30  -1.5889026780789038e-30  -4.6094141539885197e-31  -1.2307179615816187e-31  -2.9929687052006965e-32  -6.5635429065292402e-33  -1.2942173857083534e-33  -2.3053983286499293e-34  -3.7443966629935445e-35  -5.5959636991001304e-36  -7.7209276382087907e-37  -9.7483245062894562e-38  -1.0907428123565676e-38  -9.8149232770501389e-40  -4.2014054327465897e-41  9.4944413827114590e-42  3.6735141898127810e-42  8.5707345718861066e-43  1.6834535782253573e-43  3.0160914476752878e-44  5.0914086714271410e-45  8.2339997600477241e-46  1.2882990929234018e-46  1.9623370197447357e-47  2.9222533893874732e-48  4.2672163161844676e-49  6.1234516539554769e-50  8.6490665109124874e-51  1.2038634758978974e-51  1.6526861270660814e-52  2.2390271243812018e-53  2.9945337113504052e-54  3.9540703014386528e-55  5.1540132622951040e-56  6.6291429635390859e-57  8.4074762761872395e-58  1.0502140111203589e-58  1.2899063809467658e-59  1.5538847495052948e-60  1.8290623161591484e-61  2.0915032433569880e-62  2.3012558419785340e-63  2.3952325822218282e-64  2.2775076444696284e-65  1.8062278559408044e-66  7.7611855555930689e-68  -1.1046383456970650e-68  -4.2428992009352041e-69  -9.1470878284994262e-70  -1.5250304860461362e-70  0.0000000000000000e+00  0.0000000000000000e+00  1.1316950606641153e-23  8.9149051776066319e-24  4.8411329988460096e-24  2.1757439346039929e-24  8.4456739758047740e-25  2.8938171332824007e-25  8.7589114169380420e-26  2.2335644847751096e-26  4.2480388657658146e-27  2.4186048851861902e-28  -3.0054215529130980e-28  -2.0708802998510177e-28  -9.2386942734613684e-29  -3.4013494194251904e-29  -1.1121596067325737e-29  -3.2970003408275233e-30  -8.8260452676761177e-31  -2.1173308135928457e-31  -4.5482363879089825e-32  -8.8100041679991426e-33  -1.5568556044925617e-33  -2.5409662945830453e-34  -3.8669253683550535e-35  -5.5125479992617183e-36  -7.3498116794481106e-37  -9.0716324751010500e-38  -1.0082955322284363e-38  -9.3345113641019181e-40  -5.0830403620778658e-41  5.4288116595276790e-42  2.6391298471210314e-42  6.3990184027193854e-43  1.2716509703158122e-43  2.2859551878994039e-44  3.8593621116468494e-45  6.2334430487127644e-46  9.7335896212326088e-47  1.4791766415871741e-47  2.1973229967725970e-48  3.2006842629418389e-49  4.5818180205696725e-50  6.4563820167261177e-51  8.9663816124443977e-52  1.2282735745724257e-52  1.6606381470781587e-53  2.2166749768683372e-54  2.9215915216127392e-55  3.8015995918183013e-56  4.8816386152409567e-57  6.1816070695184255e-58  7.7104518696361598e-59  9.4572366182554696e-60  1.1378010028158081e-60  1.3376906762209772e-61  1.5279414505955182e-62  1.6795108173650086e-63  1.7466351997808278e-64  1.6598465043620736e-65  1.3165596395738624e-66  5.6851191703271798e-68  -7.9443830194230514e-69  -3.0515952082995676e-69  -6.1699183868960440e-70  0.0000000000000000e+00  0.0000000000000000e+00  7.4119696171803628e-23  6.2852929513776719e-23  3.6363410752660320e-23  1.7170371390747740e-23  6.9740375213952333e-24  2.5245613428149715e-24  8.1091225282049318e-25  2.2675833452826873e-25  5.3450125752211891e-26  8.8988421421011101e-27  -1.4210437230585985e-28  -9.3406544532765471e-28  -5.1452722131029426e-28  -2.0758802733949945e-28  -7.1366907575067385e-29  -2.1452003978104802e-29  -5.6442459158223237e-30  -1.3057133083857891e-30  -2.6882934036522632e-31  -5.0105363164953141e-32  -8.6058755657127168e-33  -1.3826666536837034e-33  -2.0992190640241670e-34  -3.0271956809571196e-35  -4.1495557685780564e-36  -5.3866978423493194e-37  -6.5521130613710371e-38  -7.2852186447189389e-39  -6.9566675911598846e-40  -4.5396780658770116e-41  1.5662385042552620e-42  1.3777001335315413e-42  3.5646761217871365e-43  7.2286790815364583e-44  1.3090171124027672e-44  2.2147006362323167e-45  3.5759419122398074e-46  5.5753849713425871e-47  8.4547073908295697e-48  1.2529132841187579e-48  1.8203915948523239e-49  2.5992329846102679e-50  3.6534189055304235e-51  5.0613221173121471e-52  6.9170553682825639e-53  9.3310085025571704e-54  1.2428939901838932e-54  1.6348695415933729e-55  2.1233230743993092e-56  2.7218081363244347e-57  3.4410712589780183e-58  4.2858235162163397e-59  5.2498728122765621e-60  6.3089797543910397e-61  7.4105917674460399e-62  8.4593426251082392e-63  9.2968638234875244e-64  9.6740242166915112e-65  9.2131748206235267e-66  7.3573014498600787e-67  3.3026489411162524e-68  -4.0636369756236561e-69  -1.5270497581236424e-69  0.0000000000000000e+00  0.0000000000000000e+00  4.2888252444263657e-22  4.0896075709243551e-22  2.5827009404424442e-22  1.2877673300423880e-22  5.5136267437983321e-23  2.0949888186029305e-23  7.0403351317059435e-24  2.1116124412906806e-24  5.5589259225358229e-25  1.1719274420676482e-25  1.4655964431659197e-26  -2.1458760719835223e-27  -2.4853262466438760e-27  -1.2036060046967849e-27  -4.4040736412226980e-28  -1.3199130171388524e-28  -3.3428509863615710e-29  -7.3441887891616414e-30  -1.4372559752178353e-30  -2.5694819730270792e-31  -4.2859088283948952e-32  -6.7705312368252677e-33  -1.0219473884208697e-33  -1.4802136280135502e-34  -2.0597631872725931e-35  -2.7492173022166566e-36  -3.5018578929100023e-37  -4.2124400007993701e-38  -4.6846217289172987e-39  -4.5841234218301411e-40  -3.3716131731992471e-41  -2.1076943349443221e-43  6.1529183224779301e-43  1.7550646003059705e-43  3.6597725814668370e-44  6.6961387051936865e-45  1.1369850218260885e-45  1.8367300269724041e-46  2.8606384400615234e-47  4.3297221703643323e-48  6.4012987430172773e-49  9.2769985989375496e-50  1.3211457311687225e-50  1.8521221269886434e-51  2.5593042142506211e-52  3.4890218453063396e-53  4.6954909456284528e-54  6.2403329254793043e-55  8.1909332341260959e-56  1.0616999398015308e-56  1.3584421078662649e-57  1.7145191327337349e-58  2.1321695403098312e-59  2.6083079500102900e-60  3.1310637782570678e-61  3.6748157279843989e-62  4.1931881986731891e-63  4.6093132043189079e-64  4.8024553053643978e-65  4.5898256087958258e-66  3.7019372877056036e-67  1.7507924354489988e-68  -1.6546838345042413e-69  0.0000000000000000e+00  0.0000000000000000e+00  1.8806385688936253e-21  2.3711224099428777e-21  1.7007966190281087e-21  9.1212329263866050e-22  4.1719521340102473e-22  1.6576841303245718e-22  5.8299491423457047e-23  1.8537952528721128e-23  5.1922437053709523e-24  1.2248687813874727e-24  2.2629247317278987e-25  1.9565006025051681e-26  -9.2011871461730064e-27  -6.5542415419259756e-27  -2.5473286108178280e-27  -7.4377648467306967e-28  -1.7838611932788100e-28  -3.7002165218379076e-29  -6.9021385562570474e-30  -1.1930485509350821e-30  -1.9505040545866385e-31  -3.0518350137914989e-32  -4.5967005201799349e-33  -6.6836303637503904e-34  -9.3914721215629295e-35  -1.2747703786223452e-35  -1.6678272128317091e-36  -2.0932429859346761e-37  -2.4969835885274504e-38  -2.7794269548925918e-39  -2.7721147996525987e-40  -2.2063013442641421e-41  -6.7040202815595762e-43  2.4474704168594203e-43  8.0354026274034516e-44  1.7355394513710206e-44  3.2167419851381309e-45  5.4885573381586870e-46  8.8771740041581848e-47  1.3817081219363876e-47  2.0879005141845613e-48  3.0802319978752281e-49  4.4531572584421377e-50  6.3256009305734982e-51  8.8449865602595049e-52  1.2190955848277970e-52  1.6578160055839011e-53  2.2257175551397881e-54  2.9512133091586122e-55  3.8653013121181628e-56  4.9999695274165077e-57  6.3853691105626892e-58  8.0451943957472402e-59  9.9895036324952222e-60  1.2203946922571940e-60  1.4634020454993893e-61  1.7162518273403077e-62  1.9577779164131279e-63  2.1529593353384760e-64  2.2468628385199770e-65  2.1562558284683269e-66  1.7559870725771724e-67  8.4955034165752204e-69  0.0000000000000000e+00  0.0000000000000000e+00  1.7892144483117474e-21  1.1024014117133436e-20  9.8484507463760487e-21  6.0286669403512658e-21  2.9985854489216567e-21  1.2496545733573004e-21  4.6376914999470274e-22  1.5459949365968117e-22  4.5140078399251249e-23  1.1543953724076275e-23  2.5179618617765388e-24  3.8005227017003320e-25  -8.8454710674768053e-27  -3.1169289675027707e-26  -1.2973355610137803e-26  -3.6511563454169428e-27  -8.2860179552705065e-28  -1.6384793831888588e-28  -2.9610283585340880e-29  -5.0356695136610684e-30  -8.1828120912148989e-31  -1.2792578510981420e-31  -1.9308963753042318e-32  -2.8209585637378602e-33  -3.9959935866761847e-34  -5.4921596035843554e-35  -7.3198206873835769e-36  -9.4389821932383282e-37  -1.1721610922002473e-37  -1.3897419833740498e-38  -1.5478532019864385e-39  -1.5654315417398429e-40  -1.3145004674519589e-41  -6.0035363680286166e-43  8.6455408451607302e-44  3.4946134992344277e-44  7.8750287973579684e-45  1.4817824993394520e-45  2.5431861821601736e-46  4.1208913826578035e-47  6.4127838142003390e-48  9.6778178837887086e-49  1.4250318669623065e-49  2.0556020115629466e-50  2.9129326665852391e-51  4.0630807512359200e-52  5.5863216832104194e-53  7.5783302003203742e-54  1.0150520943524367e-54  1.3428928635469712e-55  1.7550732125235949e-56  2.2657151795990237e-57  2.8880945470210053e-58  3.6326057706954023e-59  4.5036095045615744e-60  5.4947145494878750e-61  6.5818961110836851e-62  7.7136590276602697e-63  8.7972059698188726e-64  9.6792174560474600e-65  1.0118646568279655e-65  9.7335832747654536e-67  7.6785656065037494e-68  0.0000000000000000e+00  0.0000000000000000e+00  -8.3244541398232412e-20  1.7356209789058230e-20  4.3886824411528214e-20  3.6396976751125747e-20  2.0022962557745976e-20  8.9397240963307974e-21  3.5494008320114165e-21  1.2292379512263339e-21  3.7326498484214935e-22  1.0201074969355556e-22  2.4048734222713885e-23  4.2184075553192227e-24  3.2188429799937181e-25  -9.8669195667170226e-26  -5.1736938070007208e-26  -1.4562414574382643e-26  -3.2253203233204269e-27  -6.2876800357447935e-28  -1.1358470496969351e-28  -1.9446006581918752e-29  -3.1832574797541378e-30  -5.0072520390965202e-31  -7.6028550592839238e-32  -1.1186364861876063e-32  -1.5990866723398474e-33  -2.2238160244286710e-34  -3.0091671377163260e-35  -3.9581045605724788e-36  -5.0488296485393041e-37  -6.2181720862103518e-38  -7.3373020789803185e-39  -8.1767409092783273e-40  -8.3579678060088773e-41  -7.2884075042323807e-42  -4.0745812739551302e-43  2.5933488586867315e-44  1.4592416352387974e-44  3.4559960146912351e-45  6.6137356226849788e-46  1.1427402664360376e-46  1.8560090388489057e-47  2.8888063507018899e-48  4.3553905765758233e-49  6.4027770910399363e-50  9.2175846912932320e-51  1.3033374577833857e-51  1.8138044199501205e-52  2.4880534208688745e-53  3.3675671621867286e-54  4.5005358333551903e-55  5.9413459096033085e-56  7.7490571187252738e-57  9.9843275457056655e-58  1.2704034982866236e-58  1.5952560798800406e-59  1.9748331023255023e-60  2.4063724306650891e-61  2.8795827939392510e-62  3.3724707606634245e-63  3.8454661547213327e-64  4.2329086565899380e-65  4.4235178417248170e-66  4.0842375666426334e-67  0.0000000000000000e+00  0.0000000000000000e+00  -1.3630384832184850e-18  -4.8311931158555475e-19  7.6110104421799936e-20  1.8208438207904409e-19  1.1829480120715031e-19  6.0743403299505815e-20  2.6038696258092255e-20  9.3106915107705826e-21  2.9691672226953308e-21  8.5734966429638404e-22  2.0893177037291532e-22  3.9149555623637895e-23  4.9033314330007626e-24  1.6114668818775219e-25  -1.1247100438581563e-25  -4.1037009844763475e-26  -9.9505479125937880e-27  -2.0611859501498414e-27  -3.8952850973481174e-28  -6.8715903575142494e-29  -1.1462605742885013e-29  -1.8275443885182944e-30  -2.8080057313908670e-31  -4.1799524415778777e-32  -6.0467492281676842e-33  -8.5157521555982323e-34  -1.1686052434222437e-34  -1.5627576041194464e-35  -2.0347718708897551e-36  -2.5739549745851165e-37  -3.1504287376443484e-38  -3.7041238388248846e-39  -4.1295922392836358e-40  -4.2550783927077000e-41  -3.8139138568704668e-42  -2.4063390534488948e-43  5.5039202732771807e-45  5.8865471717056053e-45  1.4762616704282095e-45  2.8773721353366097e-46  5.0079166968199017e-47  8.1560650367142524e-48  1.2701231801919253e-48  1.9136459686796907e-49  2.8094129800687610e-50  4.0374575897784021e-51  5.6976608777174561e-52  7.9128092128135650e-53  1.0831343558485747e-53  1.4629304227232961e-54  1.9510718608450817e-55  2.5705325918920195e-56  3.3462049651123978e-57  4.3035973406745292e-58  5.4665699023832512e-59  6.8536804909121054e-60  8.4725596310878148e-61  1.0311534550361837e-61  1.2327461323755158e-62  1.4428331847798096e-63  1.6447405972504515e-64  1.8074459716545282e-65  1.8072736874264603e-66  0.0000000000000000e+00  0.0000000000000000e+00  -1.6399771540293865e-17  -8.2884036505884180e-18  -1.4154278286594730e-18  3.9849632399550077e-19  5.7884425590416601e-19  3.9135049275381540e-19  1.7859219528599673e-19  6.7024509030229330e-20  2.3052148206745245e-20  6.9386416325726303e-21  1.6943518285593250e-21  3.2519208573853460e-22  4.8725073457988416e-23  5.5222791866473862e-24  3.6324456375017842e-25  -3.4787769893581450e-26  -2.0601042795510921e-26  -5.5095866171550879e-27  -1.1679612441594771e-27  -2.1859150819926517e-28  -3.7812248768261484e-29  -6.1923730089742580e-30  -9.7219302251010260e-31  -1.4732810911071512e-31  -2.1645548432346237e-32  -3.0928436253972325e-33  -4.3067346203638397e-34  -5.8506326474186286e-35  -7.7547995138168143e-36  -1.0019766881459350e-36  -1.2593354605711470e-37  -1.5337657759617627e-38  -1.7981667178255641e-39  -2.0054440474186153e-40  -2.0793899970163928e-41  -1.9025041129216358e-42  -1.2998459919952734e-43  -1.7825488911856624e-46  2.3031945737333231e-45  6.1637114624094189e-46  1.2248763767144720e-46  2.1482043540937866e-47  3.5091866070939359e-48  5.4690121265984575e-49  8.2364848924864329e-50  1.2078619139524112e-50  1.7332392000784497e-51  2.4417229161066218e-52  3.3847438303513289e-53  4.6243283250522098e-54  6.2338647805936118e-55  8.2982192583859834e-56  1.0912746072698112e-56  1.4180541628645250e-57  1.8207024252771773e-58  2.3090567658176290e-59  2.8907444944812736e-60  3.5688721562277668e-61  4.3385921912069987e-62  5.1821036314801934e-63  6.0609951712908661e-64  6.8928476893264235e-65  7.2381207409175259e-66  0.0000000000000000e+00  0.0000000000000000e+00  -1.6598331638077579e-16  -8.9765888209003101e-17  -2.8699068723542836e-17  -5.7448994972628379e-18  2.0216145081748295e-18  2.2053192420398727e-18  1.0937482755753726e-18  4.7042860435177506e-19  1.7820010431742873e-19  5.3793354285050349e-20  1.2630444330465495e-20  2.3695462358304469e-21  3.7028332009144568e-22  4.9692600486137459e-23  5.6414254875846278e-24  4.6962787848193099e-25  4.6323810594562808e-27  -9.3659152453566581e-27  -2.7970066111075424e-27  -6.0017506294171566e-28  -1.1218143487462642e-28  -1.9324265340033775e-29  -3.1417345316884411e-30  -4.8853330929845906e-31  -7.3281531448832784e-32  -1.0662441019867158e-32  -1.5099210747929882e-33  -2.0852545390432588e-34  -2.8113088465373660e-35  -3.7005422513345329e-36  -4.7522157110219311e-37  -5.9424011341192118e-38  -7.2093840010296257e-39  -8.4332405042745514e-40  -9.4078279212458942e-41  -9.8025369721980718e-42  -9.1107347732666124e-43  -6.5817303094133911e-44  -1.1324528233795066e-45  8.7660581772481741e-46  2.5232899758832348e-46  5.1157909044077934e-47  9.0424301550627555e-48  1.4817898332442863e-48  2.3115524291700756e-49  3.4805016634077270e-50  5.0995510491656121e-51  7.3083124890614902e-52  1.0280126463056247e-52  1.4227043957429014e-53  1.9404224703099485e-54  2.6112914182047176e-55  3.4700740654074693e-56  4.5557493548830314e-57  5.9103753892977294e-58  7.5768681187712357e-59  9.5951839529878216e-60  1.1996206628018450e-60  1.4792389275753576e-61  1.7963807453706518e-62  2.1436052023524640e-63  2.5002821474082267e-64  2.7155794661405806e-65  0.0000000000000000e+00  0.0000000000000000e+00  -1.4158847962489324e-15  -8.4344033530337825e-16  -3.7188971133938348e-16  -1.0053331303351930e-16  -4.0494225904385594e-18  7.6909895023496051e-18  6.0013088157571953e-18  3.4021530142875330e-18  1.3462979113931919e-18  3.8073305809846980e-19  8.2162743901953096e-20  1.4492055655776094e-20  2.2167614031600826e-21  3.0478142496631920e-22  3.7774810882507534e-23  4.0944908978992775e-24  3.5291571978679519e-25  1.3781132902246178e-26  -3.4853640129618098e-27  -1.2760255725901570e-27  -2.8742909159422389e-28  -5.4400005462753218e-29  -9.3604793745206947e-30  -1.5137130411620741e-30  -2.3391679493335021e-31  -3.4860297015974122e-32  -5.0381867070557043e-33  -7.0869008791894960e-34  -9.7243662889699290e-35  -1.3032043400210229e-35  -1.7061585732708753e-36  -2.1805697786284689e-37  -2.7155834664197103e-38  -3.2841876611888844e-39  -3.8346652809183297e-40  -4.2787487351785128e-41  -4.4756450405143600e-42  -4.2108168022751623e-43  -3.1680257531251131e-44  -8.9295390701511926e-46  3.2533817972281377e-46  1.0153452815647383e-46  2.1006602142568292e-47  3.7419361817348765e-48  6.1514843182939236e-49  9.6062871151024538e-50  1.4463168031753027e-50  2.1176042437774639e-51  3.0314915427550091e-52  4.2585894623410175e-53  5.8850899902082430e-54  8.0144905904032834e-55  1.0768735249430089e-55  1.4288268009367206e-56  1.8730263759118662e-57  2.4263987675114922e-58  3.1061813512504248e-59  3.9283869086475877e-60  4.9053525776333531e-61  6.0419731023602539e-62  7.3294771912187281e-63  8.7204444505426307e-64  9.7123726525489918e-65  0.0000000000000000e+00  0.0000000000000000e+00  -1.0430774462709214e-14  -7.3581208036949933e-15  -3.7241516523644276e-15  -1.0987322072526193e-15  -2.3770208872271406e-16  -2.1242021876392654e-17  3.3852963608731202e-17  2.4721480501773529e-17  9.0964850853862371e-18  2.2723900659235383e-18  4.3949135133583080e-19  7.2185867066725190e-20  1.0735746210863805e-20  1.4891991436501984e-21  1.9332258121728884e-22  2.3289252733678734e-23  2.5403024769197348e-24  2.3244535261165101e-25  1.2940938153943216e-26  -1.0885960320764932e-27  -5.5470425421288530e-28  -1.3085579142711002e-28  -2.5077038953666989e-29  -4.3294786861188701e-30  -6.9936872196785175e-31  -1.0767766901669884e-31  -1.5969623696315756e-32  -2.2961941148123874e-33  -3.2135702617884407e-34  -4.3880000728064327e-35  -5.8531904854565365e-36  -7.6297837754467155e-37  -9.7133781673786345e-38  -1.2056706879165623e-38  -1.4544144565074144e-39  -1.6956429210716250e-40  -1.8922469905792991e-41  -