<?xml version="1.0"?>
<VTKFile type="UnstructuredGrid"  version="0.1"  >
<UnstructuredGrid>
<Piece  NumberOfPoints="4225" NumberOfCells="8192">
<Points>
<DataArray  type="Float64"  NumberOfComponents="3"  format="ascii">-1 -1 0  -0.96875 -1 0  -0.9375 -1 0  -0.90625 -1 0  -0.875 -1 0  -0.84375 -1 0  -0.8125 -1 0  -0.78125 -1 0  -0.75 -1 0  -0.71875 -1 0  -0.6875 -1 0  -0.65625 -1 0  -0.625 -1 0  -0.59375 -1 0  -0.5625 -1 0  -0.53125 -1 0  -0.5 -1 0  -0.46875 -1 0  -0.4375 -1 0  -0.40625 -1 0  -0.375 -1 0  -0.34375 -1 0  -0.3125 -1 0  -0.28125 -1 0  -0.25 -1 0  -0.21875 -1 0  -0.1875 -1 0  -0.15625 -1 0  -0.125 -1 0  -0.09375 -1 0  -0.0625 -1 0  -0.03125 -1 0  0 -1 0  0.03125 -1 0  0.0625 -1 0  0.09375 -1 0  0.125 -1 0  0.15625 -1 0  0.1875 -1 0  0.21875 -1 0  0.25 -1 0  0.28125 -1 0  0.3125 -1 0  0.34375 -1 0  0.375 -1 0  0.40625 -1 0  0.4375 -1 0  0.46875 -1 0  0.5 -1 0  0.53125 -1 0  0.5625 -1 0  0.59375 -1 0  0.625 -1 0  0.65625 -1 0  0.6875 -1 0  0.71875 -1 0  0.75 -1 0  0.78125 -1 0  0.8125 -1 0  0.84375 -1 0  0.875 -1 0  0.90625 -1 0  0.9375 -1 0  0.96875 -1 0  1 -1 0  -1 -0.96875 0  -0.96875 -0.96875 0  -0.9375 -0.96875 0  -0.90625 -0.96875 0  -0.875 -0.96875 0  -0.84375 -0.96875 0  -0.8125 -0.96875 0  -0.78125 -0.96875 0  -0.75 -0.96875 0  -0.71875 -0.96875 0  -0.6875 -0.96875 0  -0.65625 -0.96875 0  -0.625 -0.96875 0  -0.59375 -0.96875 0  -0.5625 -0.96875 0  -0.53125 -0.96875 0  -0.5 -0.96875 0  -0.46875 -0.96875 0  -0.4375 -0.96875 0  -0.40625 -0.96875 0  -0.375 -0.96875 0  -0.34375 -0.96875 0  -0.3125 -0.96875 0  -0.28125 -0.96875 0  -0.25 -0.96875 0  -0.21875 -0.96875 0  -0.1875 -0.96875 0  -0.15625 -0.96875 0  -0.125 -0.96875 0  -0.09375 -0.96875 0  -0.0625 -0.96875 0  -0.03125 -0.96875 0  0 -0.96875 0  0.03125 -0.96875 0  0.0625 -0.96875 0  0.09375 -0.96875 0  0.125 -0.96875 0  0.15625 -0.96875 0  0.1875 -0.96875 0  0.21875 -0.96875 0  0.25 -0.96875 0  0.28125 -0.96875 0  0.3125 -0.96875 0  0.34375 -0.96875 0  0.375 -0.96875 0  0.40625 -0.96875 0  0.4375 -0.96875 0  0.46875 -0.96875 0  0.5 -0.96875 0  0.53125 -0.96875 0  0.5625 -0.96875 0  0.59375 -0.96875 0  0.625 -0.96875 0  0.65625 -0.96875 0  0.6875 -0.96875 0  0.71875 -0.96875 0  0.75 -0.96875 0  0.78125 -0.96875 0  0.8125 -0.96875 0  0.84375 -0.96875 0  0.875 -0.96875 0  0.90625 -0.96875 0  0.9375 -0.96875 0  0.96875 -0.96875 0  1 -0.96875 0  -1 -0.9375 0  -0.96875 -0.9375 0  -0.9375 -0.9375 0  -0.90625 -0.9375 0  -0.875 -0.9375 0  -0.84375 -0.9375 0  -0.8125 -0.9375 0  -0.78125 -0.9375 0  -0.75 -0.9375 0  -0.71875 -0.9375 0  -0.6875 -0.9375 0  -0.65625 -0.9375 0  -0.625 -0.9375 0  -0.59375 -0.9375 0  -0.5625 -0.9375 0  -0.53125 -0.9375 0  -0.5 -0.9375 0  -0.46875 -0.9375 0  -0.4375 -0.9375 0  -0.40625 -0.9375 0  -0.375 -0.9375 0  -0.34375 -0.9375 0  -0.3125 -0.9375 0  -0.28125 -0.9375 0  -0.25 -0.9375 0  -0.21875 -0.9375 0  -0.1875 -0.9375 0  -0.15625 -0.9375 0  -0.125 -0.9375 0  -0.09375 -0.9375 0  -0.0625 -0.9375 0  -0.03125 -0.9375 0  0 -0.9375 0  0.03125 -0.9375 0  0.0625 -0.9375 0  0.09375 -0.9375 0  0.125 -0.9375 0  0.15625 -0.9375 0  0.1875 -0.9375 0  0.21875 -0.9375 0  0.25 -0.9375 0  0.28125 -0.9375 0  0.3125 -0.9375 0  0.34375 -0.9375 0  0.375 -0.9375 0  0.40625 -0.9375 0  0.4375 -0.9375 0  0.46875 -0.9375 0  0.5 -0.9375 0  0.53125 -0.9375 0  0.5625 -0.9375 0  0.59375 -0.9375 0  0.625 -0.9375 0  0.65625 -0.9375 0  0.6875 -0.9375 0  0.71875 -0.9375 0  0.75 -0.9375 0  0.78125 -0.9375 0  0.8125 -0.9375 0  0.84375 -0.9375 0  0.875 -0.9375 0  0.90625 -0.9375 0  0.9375 -0.9375 0  0.96875 -0.9375 0  1 -0.9375 0  -1 -0.90625 0  -0.96875 -0.90625 0  -0.9375 -0.90625 0  -0.90625 -0.90625 0  -0.875 -0.90625 0  -0.84375 -0.90625 0  -0.8125 -0.90625 0  -0.78125 -0.90625 0  -0.75 -0.90625 0  -0.71875 -0.90625 0  -0.6875 -0.90625 0  -0.65625 -0.90625 0  -0.625 -0.90625 0  -0.59375 -0.90625 0  -0.5625 -0.90625 0  -0.53125 -0.90625 0  -0.5 -0.90625 0  -0.46875 -0.90625 0  -0.4375 -0.90625 0  -0.40625 -0.90625 0  -0.375 -0.90625 0  -0.34375 -0.90625 0  -0.3125 -0.90625 0  -0.28125 -0.90625 0  -0.25 -0.90625 0  -0.21875 -0.90625 0  -0.1875 -0.90625 0  -0.15625 -0.90625 0  -0.125 -0.90625 0  -0.09375 -0.90625 0  -0.0625 -0.90625 0  -0.03125 -0.90625 0  0 -0.90625 0  0.03125 -0.90625 0  0.0625 -0.90625 0  0.09375 -0.90625 0  0.125 -0.90625 0  0.15625 -0.90625 0  0.1875 -0.90625 0  0.21875 -0.90625 0  0.25 -0.90625 0  0.28125 -0.90625 0  0.3125 -0.90625 0  0.34375 -0.90625 0  0.375 -0.90625 0  0.40625 -0.90625 0  0.4375 -0.90625 0  0.46875 -0.90625 0  0.5 -0.90625 0  0.53125 -0.90625 0  0.5625 -0.90625 0  0.59375 -0.90625 0  0.625 -0.90625 0  0.65625 -0.90625 0  0.6875 -0.90625 0  0.71875 -0.90625 0  0.75 -0.90625 0  0.78125 -0.90625 0  0.8125 -0.90625 0  0.84375 -0.90625 0  0.875 -0.90625 0  0.90625 -0.90625 0  0.9375 -0.90625 0  0.96875 -0.90625 0  1 -0.90625 0  -1 -0.875 0  -0.96875 -0.875 0  -0.9375 -0.875 0  -0.90625 -0.875 0  -0.875 -0.875 0  -0.84375 -0.875 0  -0.8125 -0.875 0  -0.78125 -0.875 0  -0.75 -0.875 0  -0.71875 -0.875 0  -0.6875 -0.875 0  -0.65625 -0.875 0  -0.625 -0.875 0  -0.59375 -0.875 0  -0.5625 -0.875 0  -0.53125 -0.875 0  -0.5 -0.875 0  -0.46875 -0.875 0  -0.4375 -0.875 0  -0.40625 -0.875 0  -0.375 -0.875 0  -0.34375 -0.875 0  -0.3125 -0.875 0  -0.28125 -0.875 0  -0.25 -0.875 0  -0.21875 -0.875 0  -0.1875 -0.875 0  -0.15625 -0.875 0  -0.125 -0.875 0  -0.09375 -0.875 0  -0.0625 -0.875 0  -0.03125 -0.875 0  0 -0.875 0  0.03125 -0.875 0  0.0625 -0.875 0  0.09375 -0.875 0  0.125 -0.875 0  0.15625 -0.875 0  0.1875 -0.875 0  0.21875 -0.875 0  0.25 -0.875 0  0.28125 -0.875 0  0.3125 -0.875 0  0.34375 -0.875 0  0.375 -0.875 0  0.40625 -0.875 0  0.4375 -0.875 0  0.46875 -0.875 0  0.5 -0.875 0  0.53125 -0.875 0  0.5625 -0.875 0  0.59375 -0.875 0  0.625 -0.875 0  0.65625 -0.875 0  0.6875 -0.875 0  0.71875 -0.875 0  0.75 -0.875 0  0.78125 -0.875 0  0.8125 -0.875 0  0.84375 -0.875 0  0.875 -0.875 0  0.90625 -0.875 0  0.9375 -0.875 0  0.96875 -0.875 0  1 -0.875 0  -1 -0.84375 0  -0.96875 -0.84375 0  -0.9375 -0.84375 0  -0.90625 -0.84375 0  -0.875 -0.84375 0  -0.84375 -0.84375 0  -0.8125 -0.84375 0  -0.78125 -0.84375 0  -0.75 -0.84375 0  -0.71875 -0.84375 0  -0.6875 -0.84375 0  -0.65625 -0.84375 0  -0.625 -0.84375 0  -0.59375 -0.84375 0  -0.5625 -0.84375 0  -0.53125 -0.84375 0  -0.5 -0.84375 0  -0.46875 -0.84375 0  -0.4375 -0.84375 0  -0.40625 -0.84375 0  -0.375 -0.84375 0  -0.34375 -0.84375 0  -0.3125 -0.84375 0  -0.28125 -0.84375 0  -0.25 -0.84375 0  -0.21875 -0.84375 0  -0.1875 -0.84375 0  -0.15625 -0.84375 0  -0.125 -0.84375 0  -0.09375 -0.84375 0  -0.0625 -0.84375 0  -0.03125 -0.84375 0  0 -0.84375 0  0.03125 -0.84375 0  0.0625 -0.84375 0  0.09375 -0.84375 0  0.125 -0.84375 0  0.15625 -0.84375 0  0.1875 -0.84375 0  0.21875 -0.84375 0  0.25 -0.84375 0  0.28125 -0.84375 0  0.3125 -0.84375 0  0.34375 -0.84375 0  0.375 -0.84375 0  0.40625 -0.84375 0  0.4375 -0.84375 0  0.46875 -0.84375 0  0.5 -0.84375 0  0.53125 -0.84375 0  0.5625 -0.84375 0  0.59375 -0.84375 0  0.625 -0.84375 0  0.65625 -0.84375 0  0.6875 -0.84375 0  0.71875 -0.84375 0  0.75 -0.84375 0  0.78125 -0.84375 0  0.8125 -0.84375 0  0.84375 -0.84375 0  0.875 -0.84375 0  0.90625 -0.84375 0  0.9375 -0.84375 0  0.96875 -0.84375 0  1 -0.84375 0  -1 -0.8125 0  -0.96875 -0.8125 0  -0.9375 -0.8125 0  -0.90625 -0.8125 0  -0.875 -0.8125 0  -0.84375 -0.8125 0  -0.8125 -0.8125 0  -0.78125 -0.8125 0  -0.75 -0.8125 0  -0.71875 -0.8125 0  -0.6875 -0.8125 0  -0.65625 -0.8125 0  -0.625 -0.8125 0  -0.59375 -0.8125 0  -0.5625 -0.8125 0  -0.53125 -0.8125 0  -0.5 -0.8125 0  -0.46875 -0.8125 0  -0.4375 -0.8125 0  -0.40625 -0.8125 0  -0.375 -0.8125 0  -0.34375 -0.8125 0  -0.3125 -0.8125 0  -0.28125 -0.8125 0  -0.25 -0.8125 0  -0.21875 -0.8125 0  -0.1875 -0.8125 0  -0.15625 -0.8125 0  -0.125 -0.8125 0  -0.09375 -0.8125 0  -0.0625 -0.8125 0  -0.03125 -0.8125 0  0 -0.8125 0  0.03125 -0.8125 0  0.0625 -0.8125 0  0.09375 -0.8125 0  0.125 -0.8125 0  0.15625 -0.8125 0  0.1875 -0.8125 0  0.21875 -0.8125 0  0.25 -0.8125 0  0.28125 -0.8125 0  0.3125 -0.8125 0  0.34375 -0.8125 0  0.375 -0.8125 0  0.40625 -0.8125 0  0.4375 -0.8125 0  0.46875 -0.8125 0  0.5 -0.8125 0  0.53125 -0.8125 0  0.5625 -0.8125 0  0.59375 -0.8125 0  0.625 -0.8125 0  0.65625 -0.8125 0  0.6875 -0.8125 0  0.71875 -0.8125 0  0.75 -0.8125 0  0.78125 -0.8125 0  0.8125 -0.8125 0  0.84375 -0.8125 0  0.875 -0.8125 0  0.90625 -0.8125 0  0.9375 -0.8125 0  0.96875 -0.8125 0  1 -0.8125 0  -1 -0.78125 0  -0.96875 -0.78125 0  -0.9375 -0.78125 0  -0.90625 -0.78125 0  -0.875 -0.78125 0  -0.84375 -0.78125 0  -0.8125 -0.78125 0  -0.78125 -0.78125 0  -0.75 -0.78125 0  -0.71875 -0.78125 0  -0.6875 -0.78125 0  -0.65625 -0.78125 0  -0.625 -0.78125 0  -0.59375 -0.78125 0  -0.5625 -0.78125 0  -0.53125 -0.78125 0  -0.5 -0.78125 0  -0.46875 -0.78125 0  -0.4375 -0.78125 0  -0.40625 -0.78125 0  -0.375 -0.78125 0  -0.34375 -0.78125 0  -0.3125 -0.78125 0  -0.28125 -0.78125 0  -0.25 -0.78125 0  -0.21875 -0.78125 0  -0.1875 -0.78125 0  -0.15625 -0.78125 0  -0.125 -0.78125 0  -0.09375 -0.78125 0  -0.0625 -0.78125 0  -0.03125 -0.78125 0  0 -0.78125 0  0.03125 -0.78125 0  0.0625 -0.78125 0  0.09375 -0.78125 0  0.125 -0.78125 0  0.15625 -0.78125 0  0.1875 -0.78125 0  0.21875 -0.78125 0  0.25 -0.78125 0  0.28125 -0.78125 0  0.3125 -0.78125 0  0.34375 -0.78125 0  0.375 -0.78125 0  0.40625 -0.78125 0  0.4375 -0.78125 0  0.46875 -0.78125 0  0.5 -0.78125 0  0.53125 -0.78125 0  0.5625 -0.78125 0  0.59375 -0.78125 0  0.625 -0.78125 0  0.65625 -0.78125 0  0.6875 -0.78125 0  0.71875 -0.78125 0  0.75 -0.78125 0  0.78125 -0.78125 0  0.8125 -0.78125 0  0.84375 -0.78125 0  0.875 -0.78125 0  0.90625 -0.78125 0  0.9375 -0.78125 0  0.96875 -0.78125 0  1 -0.78125 0  -1 -0.75 0  -0.96875 -0.75 0  -0.9375 -0.75 0  -0.90625 -0.75 0  -0.875 -0.75 0  -0.84375 -0.75 0  -0.8125 -0.75 0  -0.78125 -0.75 0  -0.75 -0.75 0  -0.71875 -0.75 0  -0.6875 -0.75 0  -0.65625 -0.75 0  -0.625 -0.75 0  -0.59375 -0.75 0  -0.5625 -0.75 0  -0.53125 -0.75 0  -0.5 -0.75 0  -0.46875 -0.75 0  -0.4375 -0.75 0  -0.40625 -0.75
[...]
<PointData  Scalars="f_10"> 
<DataArray  type="Float64"  Name="f_10"  format="ascii">0.0000000000000000e+00  0.0000000000000000e+00  0.0000000000000000e+00  0.0000000000000000e+00  0.0000000000000000e+00  0.0000000000000000e+00  0.0000000000000000e+00  0.0000000000000000e+00  0.0000000000000000e+00  0.0000000000000000e+00  0.0000000000000000e+00  0.0000000000000000e+00  0.0000000000000000e+00  0.0000000000000000e+00  0.0000000000000000e+00  0.0000000000000000e+00  0.0000000000000000e+00  0.0000000000000000e+00  0.0000000000000000e+00  0.0000000000000000e+00  0.0000000000000000e+00  0.0000000000000000e+00  0.0000000000000000e+00  0.0000000000000000e+00  0.0000000000000000e+00  0.0000000000000000e+00  0.0000000000000000e+00  0.0000000000000000e+00  0.0000000000000000e+00  0.0000000000000000e+00  0.0000000000000000e+00  0.0000000000000000e+00  0.0000000000000000e+00  0.0000000000000000e+00  0.0000000000000000e+00  0.0000000000000000e+00  0.0000000000000000e+00  0.0000000000000000e+00  0.0000000000000000e+00  0.0000000000000000e+00  0.0000000000000000e+00  0.0000000000000000e+00  0.0000000000000000e+00  0.0000000000000000e+00  0.0000000000000000e+00  0.0000000000000000e+00  0.0000000000000000e+00  0.0000000000000000e+00  0.0000000000000000e+00  0.0000000000000000e+00  0.0000000000000000e+00  0.0000000000000000e+00  0.0000000000000000e+00  0.0000000000000000e+00  0.0000000000000000e+00  0.0000000000000000e+00  0.0000000000000000e+00  0.0000000000000000e+00  0.0000000000000000e+00  0.0000000000000000e+00  0.0000000000000000e+00  0.0000000000000000e+00  0.0000000000000000e+00  0.0000000000000000e+00  0.0000000000000000e+00  0.0000000000000000e+00  5.4813384519886596e-26  3.6715638819892468e-26  1.7512663814723027e-26  7.1177342895650498e-27  2.6012404029413329e-27  8.6950565685022039e-28  2.6806088110220817e-28  7.6084631399503154e-29  1.9521341142620545e-29  4.3696352918452201e-30  7.7079311226967340e-31  5.6105295610069490e-32  -3.4137900725157390e-32  -2.3099771162070647e-32  -9.6782312401344433e-33  -3.3709555416128692e-33  -1.0450137924808595e-33  -2.9237845104761470e-34  -7.3717210432852976e-35  -1.6740895336271562e-35  -3.4435522596185531e-36  -6.4898265657107662e-37  -1.1378638186802624e-37  -1.8865436287878852e-38  -3.0009620058097457e-39  -4.6291496233231066e-40  -6.9698943573111634e-41  -1.0280504670315455e-41  -1.4889069905439486e-42  -2.1213503961046391e-43  -2.9784234562270836e-44  -4.1266429284609224e-45  -5.6481278359859007e-46  -7.6428169423962833e-47  -1.0230738054805047e-47  -1.3553913848900616e-48  -1.7777298305644095e-49  -2.3088056927089988e-50  -2.9692280347337420e-51  -3.7807792996364040e-52  -4.7651132289858096e-53  -5.9415989827598876e-54  -7.3239369261701190e-55  -8.9150419576428973e-56  -1.0699523425619968e-56  -1.2632860190605583e-57  -1.4626056186530564e-58  -1.6524161486447924e-59  -1.8076538385611880e-60  -1.8896092863113168e-61  -1.8403823634274882e-62  -1.5753921650808852e-63  -9.7332304761319059e-65  1.3729384716331434e-66  1.9958973525008686e-66  4.9334427850726944e-67  9.4033868863008759e-68  1.6022295868335833e-68  2.5622834630576100e-69  3.9321912864366892e-70  5.8590231889885494e-71  8.4928070705596613e-72  1.1142097450057805e-72  0.0000000000000000e+00  0.0000000000000000e+00  4.6539918344816167e-25  3.1535150518236848e-25  1.5327204705455025e-25  6.3579326490253907e-26  2.3657782403002046e-26  8.0623597798477510e-27  2.5462214523444050e-27  7.4334745014031610e-28  1.9895773006643746e-28  4.8113220436325154e-29  9.9906138907773041e-30  1.5052491492416430e-30  1.7423658736447511e-32  -1.0500422594023013e-31  -5.6374371731171202e-32  -2.1543783566722069e-32  -6.8826372245935057e-33  -1.9064154968156601e-33  -4.6499944569531524e-34  -1.0135276997275847e-34  -2.0080645102745857e-35  -3.6832330348087608e-36  -6.3635109371098057e-37  -1.0503530710905195e-37  -1.6732074411018921e-38  -2.5896208694973430e-39  -3.9115730257486165e-40  -5.7860044157211131e-41  -8.4046114330050931e-42  -1.2014672324931670e-42  -1.6930650616344040e-43  -2.3547547357929211e-44  -3.2356632924231176e-45  -4.3962669037416734e-46  -5.9100903013282719e-47  -7.8652336401617412e-48  -1.0365561762641912e-48  -1.3531253076774675e-49  -1.7498200136492760e-50  -2.2415528869538242e-51  -2.8440218802489197e-52  -3.5727415722393296e-53  -4.4414507434564240e-54  -5.4596322225817262e-55  -6.6287825581775462e-56  -7.9369399206308160e-57  -9.3508152001895533e-58  -1.0804658557942707e-58  -1.2184709005264676e-59  -1.3307700598130595e-60  -1.3891420564550928e-61  -1.3514702802393950e-62  -1.1563447969847380e-63  -7.1582379038575486e-65  9.4219544911021548e-67  1.4469048836730715e-66  3.5812593300261971e-67  6.8244595919911628e-68  1.1620954784984026e-68  1.8570218279922314e-69  2.8469587205823910e-70  4.2221394109997717e-71  5.7428206095319641e-72  0.0000000000000000e+00  0.0000000000000000e+00  3.7743117739677528e-24  2.5998176318430660e-24  1.2850729043983802e-24  5.4183619859235213e-25  2.0429905983048664e-25  7.0757018375354143e-26  2.2725470407482318e-26  6.7599243895380707e-27  1.8634757140673834e-27  4.7109059917345828e-28  1.0551133711116043e-28  1.9564348726335243e-29  2.3714454861319325e-30  -2.0339568391722248e-31  -2.7662276050757063e-31  -1.2291778490567006e-31  -4.0102058490466717e-32  -1.0764475831697874e-32  -2.4912001343937794e-33  -5.1346060040078535e-34  -9.6891334399254208e-35  -1.7135367803647291e-35  -2.8906606595187305e-36  -4.7046472740763974e-37  -7.4350175590752753e-38  -1.1453759656868577e-38  -1.7252541319020071e-39  -2.5480793639848192e-40  -3.6990166787540895e-41  -5.2882876355361758e-42  -7.4567074230814270e-43  -1.0382327947245765e-43  -1.4288164115702908e-44  -1.9450658356678563e-45  -2.6208552245298090e-46  -3.4971801739103612e-47  -4.6229814754675240e-48  -6.0557739208764867e-49  -7.8618909817179458e-50  -1.0116074811208099e-50  -1.2900024766397275e-51  -1.6299357552894352e-52  -2.0398212533710549e-53  -2.5270438019100458e-54  -3.0965905521600279e-55  -3.7489993091429994e-56  -4.4773601707381466e-57  -5.2630162041587322e-58  -6.0694908894225476e-59  -6.8340183656416870e-60  -7.4558553108196922e-61  -7.7802956306302760e-62  -7.5769761580636834e-63  -6.5106353634100667e-64  -4.1019412885694845e-65  3.2469512774054426e-67  7.7102995447867685e-67  1.9352620484944879e-67  3.7026052207659498e-68  6.3137874441774850e-69  1.0091327312885421e-69  1.5416555046307724e-70  2.1571946247483173e-71  0.0000000000000000e+00  0.0000000000000000e+00  2.9939507424806691e-23  2.0985848144624101e-23  1.0607768639479563e-23  4.5357673601497054e-24  1.7337596963430314e-24  6.0994490061806631e-25  1.9832276084668262e-25  5.9911871076289851e-26  1.6877233411136280e-26  4.3758096624450459e-27  1.0234606505908487e-27  2.1021301728333783e-28  3.4469698389971425e-29  2.5572666942444468e-30  -1.0586225523498979e-30  -6.3059775631057740e-31  -2.0997000359506780e-31  -5.4172454878619580e-32  -1.1882127191154793e-32  -2.3312280692295224e-33  -4.2371995765379329e-34  -7.3065724744622034e-35  -1.2122865515150239e-35  -1.9495891878491187e-36  -3.0518551305446565e-37  -4.6659758225709824e-38  -6.9891228243248972e-39  -1.0282963997947750e-39  -1.4889293378466536e-40  -2.1249385879929157e-41  -2.9928883751238165e-42  -4.1647502800067580e-43  -5.7311994241281013e-44  -7.8052229227221925e-45  -1.0526109840601608e-45  -1.4063748493286824e-46  -1.8622931926245155e-47  -2.4447216957505987e-48  -3.1821735274925760e-49  -4.1074083507705860e-50  -5.2571980551945958e-51  -6.6715780979419411e-52  -8.3923145712942160e-53  -1.0460213270835442e-53  -1.2910758411364682e-54  -1.5767381258360720e-55  -1.9031408244784610e-56  -2.2667409988609554e-57  -2.6582245306207292e-58  -3.0595533570671085e-59  -3.4398554150035784e-60  -3.7497619615959011e-61  -3.9136742372224947e-62  -3.8192831090068199e-63  -3.3034612887925288e-64  -2.1333861423011683e-65  1.8582827524883525e-68  3.6081732289767062e-67  9.2630524696422022e-68  1.7840205802032238e-68  3.0495704520093223e-69  4.8636742310221430e-70  7.0329256337339963e-71  0.0000000000000000e+00  0.0000000000000000e+00  2.2979958633073767e-22  1.6635461349714539e-22  8.6024548829700321e-23  3.7251452683225344e-23  1.4507260845120336e-23  5.1722198538562642e-24  1.6980540813775557e-24  5.2066505352799607e-25  1.4881670776051430e-25  3.9150233433243530e-26  9.4322037300446633e-27  2.0481408500931796e-27  3.7372530415661344e-28  4.5991547566279508e-29  -8.8125233415643961e-31  -2.5650450167465761e-30  -9.2214649939059426e-31  -2.3339782890500367e-31  -4.9543914416422329e-32  -9.4766448787574301e-33  -1.6972963338514110e-33  -2.9031595959652142e-34  -4.7867294794399008e-35  -7.6483841523480935e-36  -1.1896978864660857e-36  -1.8090527447603205e-37  -2.6980255385145743e-38  -3.9558321152442734e-39  -5.7118872420890784e-40  -8.1339039880383830e-41  -1.1437715839545877e-41  -1.5898456478914161e-42  -2.1863411419608338e-43  -2.9767044966970110e-44  -4.0148079273143239e-45  -5.3667945496651487e-46  -7.1129874468761425e-47  -9.3497736219540158e-48  -1.2191294330215647e-48  -1.5770649438112043e-49  -2.0240181472570160e-50  -2.5770225400809899e-51  -3.2545456519253835e-52  -4.0757615470931438e-53  -5.0592908603297818e-54  -6.2211737272502010e-55  -7.5717561133770730e-56  -9.1110587813283349e-57  -1.0822050943758178e-57  -1.2661056205383356e-58  -1.4544264697782791e-59  -1.6328996601351127e-60  -1.7787935974170767e-61  -1.8574001539411985e-62  -1.8172809312516596e-63  -1.5838768585204312e-64  -1.0509682874898126e-65  -6.9323237713822455e-68  1.5683175921019582e-67  4.1469668148026857e-68  8.0538740341220837e-69  1.3772061487540922e-69  2.0842769885559405e-70  0.0000000000000000e+00  0.0000000000000000e+00  1.7024886283637576e-21  1.2937201873776041e-21  6.7889654672237461e-22  3.0087681373445420e-22  1.1976254254010312e-22  4.3036717978642258e-23  1.4303410966213976e-23  4.4509248466461214e-24  1.2812773780792977e-24  3.4033090997798865e-25  8.3749958585071726e-26  1.8657695394205606e-26  3.5402415296922579e-27  5.1504581051062242e-28  4.1339331241766713e-29  -4.6304669156300392e-30  -2.8960449212871276e-30  -8.0061016832762819e-31  -1.7524811064330227e-31  -3.4224294246824456e-32  -6.2283070098973109e-33  -1.0754330545894398e-33  -1.7795444971090595e-34  -2.8447258372206315e-35  -4.4228050992434238e-36  -6.7203612439792403e-37  -1.0012238207531644e-37  -1.4660127523284109e-38  -2.1138157216222036e-39  -3.0063659414633647e-40  -4.2231869300491705e-41  -5.8656791929700095e-42  -8.0621121686034066e-43  -1.0973536117403161e-43  -1.4800455017716490e-44  -1.9790177516109281e-45  -2.6244791730257600e-46  -3.4529503819577778e-47  -4.5080775221919171e-48  -5.8413399225553551e-49  -7.5125270822854906e-50  -9.5897998410407079e-51  -1.2149064685753903e-51  -1.5272274513591624e-52  -1.9044113972356568e-53  -2.3546321145244823e-54  -2.8848622864932158e-55  -3.4994892391504760e-56  -4.1982647542166216e-57  -4.9733366116839797e-58  -5.8050261231596096e-59  -6.6559067846113235e-60  -7.4625966538282745e-61  -8.1244925348391421e-62  -8.4884363897682278e-63  -8.3279984430883203e-64  -7.3156681631765862e-65  -4.9857408510931189e-66  -6.8504828865184615e-68  6.4920328312370248e-68  1.7785723517328999e-68  3.4779536531250631e-69  5.6610928010317966e-70  0.0000000000000000e+00  0.0000000000000000e+00  1.2271829894458681e-20  9.6526102577046799e-21  5.1978505404527187e-21  2.4018901929459334e-21  9.6778080268676894e-22  3.5117296498865006e-22  1.1916581843352435e-22  3.7413514912823555e-23  1.0777415512647626e-23  2.8929943943424163e-24  7.2203819448061253e-25  1.6136001960713082e-25  3.0803211640414448e-26  4.8236208772312160e-27  5.8567647593417818e-28  4.4578055427264958e-29  -1.9441300289409347e-30  -1.7470135557207379e-30  -4.8985840670593943e-31  -1.0705048910380662e-31  -2.0647594053501341e-32  -3.6753499540524531e-33  -6.1866225307345019e-34  -9.9998295943837410e-35  -1.5666213510972825e-35  -2.3922876061232932e-36  -3.5747030903330576e-37  -5.2433192874757194e-38  -7.5684243018870187e-39  -1.0771335157240827e-39  -1.5136810128476857e-40  -2.1028752887451985e-41  -2.8909078365605769e-42  -3.9359308812777528e-43  -5.3105243315749452e-44  -7.1045290886761046e-45  -9.4282238393616541e-46  -1.2415734669994927e-46  -1.6228525825158655e-47  -2.1058760797222529e-48  -2.7132186427444464e-49  -3.4709986120908920e-50  -4.4088781805652479e-51  -5.5597612019030393e-52  -6.9590234955094141e-53  -8.6430452579360663e-54  -1.0646726473271564e-54  -1.2999547937261536e-55  -1.5719585475611882e-56  -1.8804681030364757e-57  -2.2219704418297742e-58  -2.5878485285863304e-59  -2.9618535034690346e-60  -3.3166083199642028e-61  -3.6088180722254836e-62  -3.7727624519087428e-63  -3.7115175078549724e-64  -3.2851895791232604e-65  -2.2952344987449140e-66  -4.6368565076402112e-68  2.5935557367053823e-68  7.3788775320994335e-69  1.3827518889644343e-69  0.0000000000000000e+00  0.0000000000000000e+00  8.2927489491938654e-20  6.7013106778791246e-20  3.9160827633548814e-20  1.8715436999000025e-20  7.5805344014109966e-21  2.8376868625737337e-21  9.8234227831591295e-22  3.0719171255538608e-22  8.8904085660530008e-23  2.4273319156321323e-23  6.0680683996206989e-24  1.3268950652142291e-24  2.4759553488390203e-25  3.9358290073668151e-26  5.3660890565415562e-27  6.2086876427227401e-28  5.5418032085293184e-29  1.7669505803505309e-30  -7.6396092855343446e-31  -2.6248883571332378e-31  -5.9012343877590806e-32  -1.1305869273025209e-32  -1.9867605190259702e-33  -3.3013257482378318e-34  -5.2659298813280347e-35  -8.1368845936156366e-36  -1.2257822384219944e-36  -1.8085278401128766e-37  -2.6216933481425514e-38  -3.7427653788704743e-39  -5.2716796558953453e-40  -7.3365331852886539e-41  -1.0100156369948032e-41  -1.3767822244988298e-42  -1.8596425149576574e-43  -2.4905130714901925e-44  -3.3087310318927037e-45  -4.3623633254937513e-46  -5.7096116696932853e-47  -7.4202558508604477e-48  -9.5770285048473589e-49  -1.2276761980116448e-49  -1.5631075765454172e-50  -1.9766264686869056e-51  -2.4821895789066916e-52  -3.0947416463601821e-53  -3.8295803347884058e-54  -4.7012919445278761e-55  -5.7220763187875026e-56  -6.8992147088298036e-57  -8.2313492725563664e-58  -9.7031319330162447e-59  -1.1277655462172997e-59  -1.2885890391539775e-60  -1.4412105645258976e-61  -1.5673933802978644e-62  -1.6395333638607140e-63  -1.6170177271768395e-64  -1.4413515476640912e-65  -1.0296730152205095e-66  -2.6627097650281836e-68  1.0042076662749577e-68  2.8310179841398834e-69  0.0000000000000000e+00  0.0000000000000000e+00  4.5565842496191698e-19  4.3806532509680566e-19  2.8758882504003714e-19  1.3774051076408632e-19  5.8310204774688540e-20  2.2874234442774764e-20  7.8876694775761949e-21  2.4610183404955202e-21  7.3109615448379119e-22  2.0224189414404054e-22  4.9149867360640371e-23  1.0174807721701573e-23  1.8001908483968671e-24  2.7818633800715512e-25  3.8450939945786243e-26  4.8015576713983273e-27  5.3170968546913867e-28  4.8394945474442438e-29  2.5648525317714628e-30  -2.6545189084141648e-31  -1.2535871298340854e-31  -2.9625601023977189e-32  -5.7487666587396976e-33  -1.0093402940461642e-33  -1.6648058377582803e-34  -2.6299650976043792e-35  -4.0238827785119727e-36  -6.0034839799768927e-37  -8.7737715657523389e-38  -1.2601636420922561e-38  -1.7832329710202572e-39  -2.4908384028820107e-40  -3.4392480319169108e-41  -4.6995559784091771e-42  -6.3610076854792239e-43  -8.5348075829294575e-44  -1.1358457275578566e-44  -1.5000667266785307e-45  -1.9666771540865749e-46  -2.5604467280832921e-47  -3.3109620675538864e-48  -4.2531737653958795e-49  -5.4278450542929864e-50  -6.8818030740464517e-51  -8.6678491248313550e-52  -1.0844123930110840e-52  -1.3472641610684359e-53  -1.6616594400242707e-54  -2.0335880169091589e-55  -2.4680106524676714e-56  -2.9678064789470833e-57  -3.5322323884320065e-58  -4.1547142462782831e-59  -4.8197308519369756e-60  -5.4984751771002655e-61  -6.1428784196500433e-62  -6.6774543608711348e-63  -6.9882565939686918e-64  -6.9080290724746692e-65  -6.1963510806029125e-66  -4.5132063575311445e-67  -1.3885176288188647e-68  3.5581186738063715e-69  0.0000000000000000e+00  0.0000000000000000e+00  1.4827560720148149e-18  2.7345359215240240e-18  1.8856261973781305e-18  9.5771068401197639e-19  4.5225432835643637e-19  1.7901611333558632e-19  6.0859864404760038e-20  1.9752255157242665e-20  6.0875254136678348e-21  1.6418957284250028e-21  3.7057723651978717e-22  7.0273843705749308e-23  1.1524841216604969e-23  1.6934770574358189e-24  2.2932899846534123e-25  2.8978995036315331e-26  3.4054737223505426e-27  3.6523631969013792e-28  3.3891614111209412e-29  2.2220532722113027e-30  -4.5128054576665347e-32  -5.4819486970972615e-32  -1.4029040191536769e-32  -2.7692416386887139e-33  -4.8692693224442106e-34  -8.0043520668803295e-35  -1.2574323526623583e-35  -1.9106228613669969e-36  -2.8293723444991652e-37  -4.1042583694533696e-38  -5.8522832623894352e-39  -8.2234159173483831e-40  -1.1408847400604898e-40  -1.5650814756859097e-41  -2.1253988866722105e-42  -2.8598842481825265e-43  -3.8157333976977809e-44  -5.0510835111097491e-45  -6.6370068561837035e-46  -8.6596825930724518e-47  -1.1222697109393987e-47  -1.4449363691749659e-48  -1.8484878798850564e-49  -2.3498042226173800e-50  -2.9682140606158868e-51  -3.7254411349428453e-52  -4.6453254039712926e-53  -5.7532019604732624e-54  -7.0747759443494648e-55  -8.6342721422146959e-56  -1.0451558593390455e-56  -1.2537838292516435e-57  -1.4889365212975396e-58  -1.7478461110765770e-59  -2.0240874985651293e-60  -2.3058221786320274e-61  -2.5733841980143048e-62  -2.7959914440790689e-63  -2.9272996789236443e-64  -2.8994259426987904e-65  -2.6148454626923010e-66  -1.9340967258739537e-67  -6.6695120729876068e-69  0.0000000000000000e+00  0.0000000000000000e+00  -3.7580102060558419e-18  1.2243250587468485e-17  9.8204764721995211e-18  6.7211399016114692e-18  3.4056670720768429e-18  1.3027800596605305e-18  4.6825764847281029e-19  1.6453449852865311e-19  5.0054588328052160e-20  1.2339698945494395e-20  2.4817350806295520e-21  4.2300187000818720e-22  6.4036291267725640e-23  8.9712753864939711e-24  1.1920980339651863e-24  1.5140940842735993e-25  1.8348030669230958e-26  2.1041525687154828e-27  2.2378297709630203e-28  2.1025285576248914e-29  1.5070833483686345e-30  1.8624416405161918e-32  -2.2374351128839428e-32  -6.3009417025559979e-33  -1.2741077839915752e-33  -2.2542657169040473e-34  -3.7019550358978643e-35  -5.7924217685673508e-36  -8.7567676092282547e-37  -1.2895804464456789e-37  -1.8598369594891620e-38  -2.6364831959788905e-39  -3.6834839838831764e-40  -5.0819751887061819e-41  -6.9341815578684543e-42  -9.3681329569139576e-43  -1.2543162421309868e-43  -1.6656191948952720e-44  -2.1948876987577403e-45  -2.8715608719614488e-46  -3.7312216746868205e-47  -4.8165083375993582e-48  -6.1780232336002164e-49  -7.8751690524366603e-50  -9.9768016778266275e-51  -1.2561534930865752e-51  -1.5717460105030010e-52  -1.9540945415360646e-53  -2.4134047771380967e-54  -2.9599890004543007e-55  -3.6035117758994895e-56  -4.3518235843633350e-57  -5.2092210450901979e-58  -6.1739179190600033e-59  -7.2344397991040041e-60  -8.3645627736796881e-61  -9.5162963664568790e-62  -1.0610255695144584e-62  -1.1522565953870279e-63  -1.2067152077224326e-64  -1.1971256113617778e-65  -1.0828925475516869e-66  -7.8279028976633955e-68  0.0000000000000000e+00  0.0000000000000000e+00  -1.7081671666160800e-16  -3.3726899025164420e-17  4.0021743918825412e-17  4.6076832029458988e-17  2.2191963273517241e-17  9.1522585078076442e-18  3.8685110258383284e-18  1.3805179883304879e-18  3.7779715370061631e-19  8.0703092218331918e-20  1.4192408415777203e-20  2.1856632808019238e-21  3.1160650608918147e-22  4.2566671091538529e-23  5.6301487562328603e-24  7.2003520960743242e-25  8.8756822316616093e-26  1.0496358400730028e-26  1.1799966101411820e-27  1.2394641764949745e-28  1.1711735014180267e-29  8.9025050085971648e-31  2.7231232967370358e-32  -8.5521592946791243e-33  -2.7254266301419465e-33  -5.6548591812110749e-34  -1.0072820022247893e-34  -1.6551285499401791e-35  -2.5840791174938186e-36