<?xml version="1.0"?>
<VTKFile type="UnstructuredGrid"  version="0.1"  >
<UnstructuredGrid>
<Piece  NumberOfPoints="4225" NumberOfCells="8192">
<Points>
<DataArray  type="Float64"  NumberOfComponents="3"  format="ascii">-1 -1 0  -0.96875 -1 0  -0.9375 -1 0  -0.90625 -1 0  -0.875 -1 0  -0.84375 -1 0  -0.8125 -1 0  -0.78125 -1 0  -0.75 -1 0  -0.71875 -1 0  -0.6875 -1 0  -0.65625 -1 0  -0.625 -1 0  -0.59375 -1 0  -0.5625 -1 0  -0.53125 -1 0  -0.5 -1 0  -0.46875 -1 0  -0.4375 -1 0  -0.40625 -1 0  -0.375 -1 0  -0.34375 -1 0  -0.3125 -1 0  -0.28125 -1 0  -0.25 -1 0  -0.21875 -1 0  -0.1875 -1 0  -0.15625 -1 0  -0.125 -1 0  -0.09375 -1 0  -0.0625 -1 0  -0.03125 -1 0  0 -1 0  0.03125 -1 0  0.0625 -1 0  0.09375 -1 0  0.125 -1 0  0.15625 -1 0  0.1875 -1 0  0.21875 -1 0  0.25 -1 0  0.28125 -1 0  0.3125 -1 0  0.34375 -1 0  0.375 -1 0  0.40625 -1 0  0.4375 -1 0  0.46875 -1 0  0.5 -1 0  0.53125 -1 0  0.5625 -1 0  0.59375 -1 0  0.625 -1 0  0.65625 -1 0  0.6875 -1 0  0.71875 -1 0  0.75 -1 0  0.78125 -1 0  0.8125 -1 0  0.84375 -1 0  0.875 -1 0  0.90625 -1 0  0.9375 -1 0  0.96875 -1 0  1 -1 0  -1 -0.96875 0  -0.96875 -0.96875 0  -0.9375 -0.96875 0  -0.90625 -0.96875 0  -0.875 -0.96875 0  -0.84375 -0.96875 0  -0.8125 -0.96875 0  -0.78125 -0.96875 0  -0.75 -0.96875 0  -0.71875 -0.96875 0  -0.6875 -0.96875 0  -0.65625 -0.96875 0  -0.625 -0.96875 0  -0.59375 -0.96875 0  -0.5625 -0.96875 0  -0.53125 -0.96875 0  -0.5 -0.96875 0  -0.46875 -0.96875 0  -0.4375 -0.96875 0  -0.40625 -0.96875 0  -0.375 -0.96875 0  -0.34375 -0.96875 0  -0.3125 -0.96875 0  -0.28125 -0.96875 0  -0.25 -0.96875 0  -0.21875 -0.96875 0  -0.1875 -0.96875 0  -0.15625 -0.96875 0  -0.125 -0.96875 0  -0.09375 -0.96875 0  -0.0625 -0.96875 0  -0.03125 -0.96875 0  0 -0.96875 0  0.03125 -0.96875 0  0.0625 -0.96875 0  0.09375 -0.96875 0  0.125 -0.96875 0  0.15625 -0.96875 0  0.1875 -0.96875 0  0.21875 -0.96875 0  0.25 -0.96875 0  0.28125 -0.96875 0  0.3125 -0.96875 0  0.34375 -0.96875 0  0.375 -0.96875 0  0.40625 -0.96875 0  0.4375 -0.96875 0  0.46875 -0.96875 0  0.5 -0.96875 0  0.53125 -0.96875 0  0.5625 -0.96875 0  0.59375 -0.96875 0  0.625 -0.96875 0  0.65625 -0.96875 0  0.6875 -0.96875 0  0.71875 -0.96875 0  0.75 -0.96875 0  0.78125 -0.96875 0  0.8125 -0.96875 0  0.84375 -0.96875 0  0.875 -0.96875 0  0.90625 -0.96875 0  0.9375 -0.96875 0  0.96875 -0.96875 0  1 -0.96875 0  -1 -0.9375 0  -0.96875 -0.9375 0  -0.9375 -0.9375 0  -0.90625 -0.9375 0  -0.875 -0.9375 0  -0.84375 -0.9375 0  -0.8125 -0.9375 0  -0.78125 -0.9375 0  -0.75 -0.9375 0  -0.71875 -0.9375 0  -0.6875 -0.9375 0  -0.65625 -0.9375 0  -0.625 -0.9375 0  -0.59375 -0.9375 0  -0.5625 -0.9375 0  -0.53125 -0.9375 0  -0.5 -0.9375 0  -0.46875 -0.9375 0  -0.4375 -0.9375 0  -0.40625 -0.9375 0  -0.375 -0.9375 0  -0.34375 -0.9375 0  -0.3125 -0.9375 0  -0.28125 -0.9375 0  -0.25 -0.9375 0  -0.21875 -0.9375 0  -0.1875 -0.9375 0  -0.15625 -0.9375 0  -0.125 -0.9375 0  -0.09375 -0.9375 0  -0.0625 -0.9375 0  -0.03125 -0.9375 0  0 -0.9375 0  0.03125 -0.9375 0  0.0625 -0.9375 0  0.09375 -0.9375 0  0.125 -0.9375 0  0.15625 -0.9375 0  0.1875 -0.9375 0  0.21875 -0.9375 0  0.25 -0.9375 0  0.28125 -0.9375 0  0.3125 -0.9375 0  0.34375 -0.9375 0  0.375 -0.9375 0  0.40625 -0.9375 0  0.4375 -0.9375 0  0.46875 -0.9375 0  0.5 -0.9375 0  0.53125 -0.9375 0  0.5625 -0.9375 0  0.59375 -0.9375 0  0.625 -0.9375 0  0.65625 -0.9375 0  0.6875 -0.9375 0  0.71875 -0.9375 0  0.75 -0.9375 0  0.78125 -0.9375 0  0.8125 -0.9375 0  0.84375 -0.9375 0  0.875 -0.9375 0  0.90625 -0.9375 0  0.9375 -0.9375 0  0.96875 -0.9375 0  1 -0.9375 0  -1 -0.90625 0  -0.96875 -0.90625 0  -0.9375 -0.90625 0  -0.90625 -0.90625 0  -0.875 -0.90625 0  -0.84375 -0.90625 0  -0.8125 -0.90625 0  -0.78125 -0.90625 0  -0.75 -0.90625 0  -0.71875 -0.90625 0  -0.6875 -0.90625 0  -0.65625 -0.90625 0  -0.625 -0.90625 0  -0.59375 -0.90625 0  -0.5625 -0.90625 0  -0.53125 -0.90625 0  -0.5 -0.90625 0  -0.46875 -0.90625 0  -0.4375 -0.90625 0  -0.40625 -0.90625 0  -0.375 -0.90625 0  -0.34375 -0.90625 0  -0.3125 -0.90625 0  -0.28125 -0.90625 0  -0.25 -0.90625 0  -0.21875 -0.90625 0  -0.1875 -0.90625 0  -0.15625 -0.90625 0  -0.125 -0.90625 0  -0.09375 -0.90625 0  -0.0625 -0.90625 0  -0.03125 -0.90625 0  0 -0.90625 0  0.03125 -0.90625 0  0.0625 -0.90625 0  0.09375 -0.90625 0  0.125 -0.90625 0  0.15625 -0.90625 0  0.1875 -0.90625 0  0.21875 -0.90625 0  0.25 -0.90625 0  0.28125 -0.90625 0  0.3125 -0.90625 0  0.34375 -0.90625 0  0.375 -0.90625 0  0.40625 -0.90625 0  0.4375 -0.90625 0  0.46875 -0.90625 0  0.5 -0.90625 0  0.53125 -0.90625 0  0.5625 -0.90625 0  0.59375 -0.90625 0  0.625 -0.90625 0  0.65625 -0.90625 0  0.6875 -0.90625 0  0.71875 -0.90625 0  0.75 -0.90625 0  0.78125 -0.90625 0  0.8125 -0.90625 0  0.84375 -0.90625 0  0.875 -0.90625 0  0.90625 -0.90625 0  0.9375 -0.90625 0  0.96875 -0.90625 0  1 -0.90625 0  -1 -0.875 0  -0.96875 -0.875 0  -0.9375 -0.875 0  -0.90625 -0.875 0  -0.875 -0.875 0  -0.84375 -0.875 0  -0.8125 -0.875 0  -0.78125 -0.875 0  -0.75 -0.875 0  -0.71875 -0.875 0  -0.6875 -0.875 0  -0.65625 -0.875 0  -0.625 -0.875 0  -0.59375 -0.875 0  -0.5625 -0.875 0  -0.53125 -0.875 0  -0.5 -0.875 0  -0.46875 -0.875 0  -0.4375 -0.875 0  -0.40625 -0.875 0  -0.375 -0.875 0  -0.34375 -0.875 0  -0.3125 -0.875 0  -0.28125 -0.875 0  -0.25 -0.875 0  -0.21875 -0.875 0  -0.1875 -0.875 0  -0.15625 -0.875 0  -0.125 -0.875 0  -0.09375 -0.875 0  -0.0625 -0.875 0  -0.03125 -0.875 0  0 -0.875 0  0.03125 -0.875 0  0.0625 -0.875 0  0.09375 -0.875 0  0.125 -0.875 0  0.15625 -0.875 0  0.1875 -0.875 0  0.21875 -0.875 0  0.25 -0.875 0  0.28125 -0.875 0  0.3125 -0.875 0  0.34375 -0.875 0  0.375 -0.875 0  0.40625 -0.875 0  0.4375 -0.875 0  0.46875 -0.875 0  0.5 -0.875 0  0.53125 -0.875 0  0.5625 -0.875 0  0.59375 -0.875 0  0.625 -0.875 0  0.65625 -0.875 0  0.6875 -0.875 0  0.71875 -0.875 0  0.75 -0.875 0  0.78125 -0.875 0  0.8125 -0.875 0  0.84375 -0.875 0  0.875 -0.875 0  0.90625 -0.875 0  0.9375 -0.875 0  0.96875 -0.875 0  1 -0.875 0  -1 -0.84375 0  -0.96875 -0.84375 0  -0.9375 -0.84375 0  -0.90625 -0.84375 0  -0.875 -0.84375 0  -0.84375 -0.84375 0  -0.8125 -0.84375 0  -0.78125 -0.84375 0  -0.75 -0.84375 0  -0.71875 -0.84375 0  -0.6875 -0.84375 0  -0.65625 -0.84375 0  -0.625 -0.84375 0  -0.59375 -0.84375 0  -0.5625 -0.84375 0  -0.53125 -0.84375 0  -0.5 -0.84375 0  -0.46875 -0.84375 0  -0.4375 -0.84375 0  -0.40625 -0.84375 0  -0.375 -0.84375 0  -0.34375 -0.84375 0  -0.3125 -0.84375 0  -0.28125 -0.84375 0  -0.25 -0.84375 0  -0.21875 -0.84375 0  -0.1875 -0.84375 0  -0.15625 -0.84375 0  -0.125 -0.84375 0  -0.09375 -0.84375 0  -0.0625 -0.84375 0  -0.03125 -0.84375 0  0 -0.84375 0  0.03125 -0.84375 0  0.0625 -0.84375 0  0.09375 -0.84375 0  0.125 -0.84375 0  0.15625 -0.84375 0  0.1875 -0.84375 0  0.21875 -0.84375 0  0.25 -0.84375 0  0.28125 -0.84375 0  0.3125 -0.84375 0  0.34375 -0.84375 0  0.375 -0.84375 0  0.40625 -0.84375 0  0.4375 -0.84375 0  0.46875 -0.84375 0  0.5 -0.84375 0  0.53125 -0.84375 0  0.5625 -0.84375 0  0.59375 -0.84375 0  0.625 -0.84375 0  0.65625 -0.84375 0  0.6875 -0.84375 0  0.71875 -0.84375 0  0.75 -0.84375 0  0.78125 -0.84375 0  0.8125 -0.84375 0  0.84375 -0.84375 0  0.875 -0.84375 0  0.90625 -0.84375 0  0.9375 -0.84375 0  0.96875 -0.84375 0  1 -0.84375 0  -1 -0.8125 0  -0.96875 -0.8125 0  -0.9375 -0.8125 0  -0.90625 -0.8125 0  -0.875 -0.8125 0  -0.84375 -0.8125 0  -0.8125 -0.8125 0  -0.78125 -0.8125 0  -0.75 -0.8125 0  -0.71875 -0.8125 0  -0.6875 -0.8125 0  -0.65625 -0.8125 0  -0.625 -0.8125 0  -0.59375 -0.8125 0  -0.5625 -0.8125 0  -0.53125 -0.8125 0  -0.5 -0.8125 0  -0.46875 -0.8125 0  -0.4375 -0.8125 0  -0.40625 -0.8125 0  -0.375 -0.8125 0  -0.34375 -0.8125 0  -0.3125 -0.8125 0  -0.28125 -0.8125 0  -0.25 -0.8125 0  -0.21875 -0.8125 0  -0.1875 -0.8125 0  -0.15625 -0.8125 0  -0.125 -0.8125 0  -0.09375 -0.8125 0  -0.0625 -0.8125 0  -0.03125 -0.8125 0  0 -0.8125 0  0.03125 -0.8125 0  0.0625 -0.8125 0  0.09375 -0.8125 0  0.125 -0.8125 0  0.15625 -0.8125 0  0.1875 -0.8125 0  0.21875 -0.8125 0  0.25 -0.8125 0  0.28125 -0.8125 0  0.3125 -0.8125 0  0.34375 -0.8125 0  0.375 -0.8125 0  0.40625 -0.8125 0  0.4375 -0.8125 0  0.46875 -0.8125 0  0.5 -0.8125 0  0.53125 -0.8125 0  0.5625 -0.8125 0  0.59375 -0.8125 0  0.625 -0.8125 0  0.65625 -0.8125 0  0.6875 -0.8125 0  0.71875 -0.8125 0  0.75 -0.8125 0  0.78125 -0.8125 0  0.8125 -0.8125 0  0.84375 -0.8125 0  0.875 -0.8125 0  0.90625 -0.8125 0  0.9375 -0.8125 0  0.96875 -0.8125 0  1 -0.8125 0  -1 -0.78125 0  -0.96875 -0.78125 0  -0.9375 -0.78125 0  -0.90625 -0.78125 0  -0.875 -0.78125 0  -0.84375 -0.78125 0  -0.8125 -0.78125 0  -0.78125 -0.78125 0  -0.75 -0.78125 0  -0.71875 -0.78125 0  -0.6875 -0.78125 0  -0.65625 -0.78125 0  -0.625 -0.78125 0  -0.59375 -0.78125 0  -0.5625 -0.78125 0  -0.53125 -0.78125 0  -0.5 -0.78125 0  -0.46875 -0.78125 0  -0.4375 -0.78125 0  -0.40625 -0.78125 0  -0.375 -0.78125 0  -0.34375 -0.78125 0  -0.3125 -0.78125 0  -0.28125 -0.78125 0  -0.25 -0.78125 0  -0.21875 -0.78125 0  -0.1875 -0.78125 0  -0.15625 -0.78125 0  -0.125 -0.78125 0  -0.09375 -0.78125 0  -0.0625 -0.78125 0  -0.03125 -0.78125 0  0 -0.78125 0  0.03125 -0.78125 0  0.0625 -0.78125 0  0.09375 -0.78125 0  0.125 -0.78125 0  0.15625 -0.78125 0  0.1875 -0.78125 0  0.21875 -0.78125 0  0.25 -0.78125 0  0.28125 -0.78125 0  0.3125 -0.78125 0  0.34375 -0.78125 0  0.375 -0.78125 0  0.40625 -0.78125 0  0.4375 -0.78125 0  0.46875 -0.78125 0  0.5 -0.78125 0  0.53125 -0.78125 0  0.5625 -0.78125 0  0.59375 -0.78125 0  0.625 -0.78125 0  0.65625 -0.78125 0  0.6875 -0.78125 0  0.71875 -0.78125 0  0.75 -0.78125 0  0.78125 -0.78125 0  0.8125 -0.78125 0  0.84375 -0.78125 0  0.875 -0.78125 0  0.90625 -0.78125 0  0.9375 -0.78125 0  0.96875 -0.78125 0  1 -0.78125 0  -1 -0.75 0  -0.96875 -0.75 0  -0.9375 -0.75 0  -0.90625 -0.75 0  -0.875 -0.75 0  -0.84375 -0.75 0  -0.8125 -0.75 0  -0.78125 -0.75 0  -0.75 -0.75 0  -0.71875 -0.75 0  -0.6875 -0.75 0  -0.65625 -0.75 0  -0.625 -0.75 0  -0.59375 -0.75 0  -0.5625 -0.75 0  -0.53125 -0.75 0  -0.5 -0.75 0  -0.46875 -0.75 0  -0.4375 -0.75 0  -0.40625 -0.75
[...]
<PointData  Scalars="f_10"> 
<DataArray  type="Float64"  Name="f_10"  format="ascii">0.0000000000000000e+00  0.0000000000000000e+00  0.0000000000000000e+00  0.0000000000000000e+00  0.0000000000000000e+00  0.0000000000000000e+00  0.0000000000000000e+00  0.0000000000000000e+00  0.0000000000000000e+00  0.0000000000000000e+00  0.0000000000000000e+00  0.0000000000000000e+00  0.0000000000000000e+00  0.0000000000000000e+00  0.0000000000000000e+00  0.0000000000000000e+00  0.0000000000000000e+00  0.0000000000000000e+00  0.0000000000000000e+00  0.0000000000000000e+00  0.0000000000000000e+00  0.0000000000000000e+00  0.0000000000000000e+00  0.0000000000000000e+00  0.0000000000000000e+00  0.0000000000000000e+00  0.0000000000000000e+00  0.0000000000000000e+00  0.0000000000000000e+00  0.0000000000000000e+00  0.0000000000000000e+00  0.0000000000000000e+00  0.0000000000000000e+00  0.0000000000000000e+00  0.0000000000000000e+00  0.0000000000000000e+00  0.0000000000000000e+00  0.0000000000000000e+00  0.0000000000000000e+00  0.0000000000000000e+00  0.0000000000000000e+00  0.0000000000000000e+00  0.0000000000000000e+00  0.0000000000000000e+00  0.0000000000000000e+00  0.0000000000000000e+00  0.0000000000000000e+00  0.0000000000000000e+00  0.0000000000000000e+00  0.0000000000000000e+00  0.0000000000000000e+00  0.0000000000000000e+00  0.0000000000000000e+00  0.0000000000000000e+00  0.0000000000000000e+00  0.0000000000000000e+00  0.0000000000000000e+00  0.0000000000000000e+00  0.0000000000000000e+00  0.0000000000000000e+00  0.0000000000000000e+00  0.0000000000000000e+00  0.0000000000000000e+00  0.0000000000000000e+00  0.0000000000000000e+00  0.0000000000000000e+00  -2.2254995362393676e-22  -1.7645607493817869e-22  -8.6217700796348674e-23  -3.0775033747649085e-23  -6.6207468448630058e-24  6.1239044521644808e-25  1.5639229966807475e-24  1.0519042990931471e-24  5.0869115394979724e-25  2.0229714197610880e-25  6.9549021496194912e-26  2.0474214867993010e-26  4.9082994633979861e-27  8.3531039069211291e-28  1.7439247833390690e-29  -6.5809789059597272e-29  -3.6879706457040018e-29  -1.3559825642012918e-29  -3.9034301062497167e-30  -9.3246464495908526e-31  -1.9153193566477518e-31  -3.4778597158604229e-32  -5.6970465721450134e-33  -8.4949739096300057e-34  -1.1444705902861780e-34  -1.3454444927257764e-35  -1.2346141452718613e-36  -4.3004875870168583e-38  1.6934171128370706e-38  6.1146535084170305e-39  1.4303973945329987e-39  2.8376141502607947e-40  5.1244727351190639e-41  8.6755240485771107e-42  1.3975327209796604e-42  2.1601497783711421e-43  3.2192741481621723e-44  4.6374686960171637e-45  6.4618912459877089e-46  8.7002502135986711e-47  1.1282553578518436e-47  1.4003029112956913e-48  1.6434970051379050e-49  1.7809691092572125e-50  1.6849438519577806e-51  1.1543064859324099e-52  -1.1470819800406276e-54  -2.5657506258178951e-54  -6.8281953777016215e-55  -1.3771505165866055e-55  -2.4566697090014811e-56  -4.0751306026176028e-57  -6.4290872723089316e-58  -9.7624965465848662e-59  -1.4367848016849150e-59  -2.0580873641818836e-60  -2.8764482729263710e-61  -3.9275671342611421e-62  -5.2406600506806309e-63  -6.8286708550926475e-64  -8.6705690084444825e-65  -1.0636748741104168e-65  -1.1586516654180643e-66  0.0000000000000000e+00  0.0000000000000000e+00  -1.4210862284418185e-21  -1.2695497908755993e-21  -7.2188254392121453e-22  -3.0741629522922045e-22  -9.4836786450225316e-23  -1.7086144049405621e-23  3.4966289187587190e-24  5.2637349599639569e-24  3.1133392004478225e-24  1.3987559370852370e-24  5.2696916390763128e-25  1.6775347600288308e-25  4.4976371708682160e-26  9.7410048291437633e-27  1.3008048230041251e-27  -1.5757942623701322e-28  -1.8375399253303642e-28  -7.5736951176850925e-29  -2.2400195399963563e-29  -5.3998125272718984e-30  -1.1235953091565516e-30  -2.0889132454519485e-31  -3.5434316409900271e-32  -5.5418361148691839e-33  -8.0018070532141294e-34  -1.0569621437922349e-34  -1.2408593915692844e-35  -1.1870127268449057e-36  -6.0196316361278081e-38  9.9892807795187953e-39  4.3701305359435824e-39  1.0632179896152896e-39  2.1383216532512363e-40  3.8815293020725190e-41  6.5814751195659718e-42  1.0601196382504793e-42  1.6372440652204127e-43  2.4370889882369892e-44  3.5060283832697944e-45  4.8788305461539742e-46  6.5610107488258171e-47  8.5007196334401823e-48  1.0546052784045905e-48  1.2382656732771086e-49  1.3445362697831376e-50  1.2796477207584831e-51  8.9625862256755713e-53  -2.7840283752914857e-55  -1.8167321254867571e-54  -4.9295545838243463e-55  -9.9997714780968992e-56  -1.7879481544984106e-56  -2.9686126284031709e-57  -4.6846510212452539e-58  -7.1129414967651803e-59  -1.0465285924178819e-59  -1.4984470138065221e-60  -2.0932515493585133e-61  -2.8566599130770353e-62  -3.8095930491897248e-63  -4.9601746864262771e-64  -6.2713172457163239e-65  -7.2251723136593254e-66  0.0000000000000000e+00  0.0000000000000000e+00  -6.9590618862612158e-21  -7.7280451586732844e-21  -5.2153900082792347e-21  -2.5208639588380693e-21  -9.4873103032835684e-22  -2.7015340244198781e-22  -3.5997638182801551e-23  1.5463738254219217e-23  1.5555585222009683e-23  8.4804350442519351e-24  3.5339109229511543e-24  1.2129482082599766e-24  3.5656802047894486e-25  8.7659711004715466e-26  1.5606402168644989e-26  8.4132967997377372e-28  -6.8150238816015726e-28  -3.4139999669776395e-28  -1.0358317336364658e-28  -2.4876603882580569e-29  -5.1601051661183144e-30  -9.6545192084159221e-31  -1.6673476607032793e-31  -2.6881802703767567e-32  -4.0626804315208695e-33  -5.7452303396385395e-34  -7.5274654496166184e-35  -8.9072232108289616e-36  -8.8979797326311779e-37  -5.7673919612071461e-38  3.3120998975090744e-39  2.2715288265294387e-39  5.8917087917766412e-40  1.2111984790535697e-40  2.2189506221953129e-41  3.7772746568915854e-42  6.0927212881899909e-43  9.4102311361864692e-44  1.3999288810881734e-44  2.0122679670672370e-45  2.7978234639849759e-46  3.7600552940121645e-47  4.8705374470903315e-48  6.0454027786278542e-49  7.1109605134122469e-50  7.7550660588126305e-51  7.4602747774216324e-52  5.4143990343176492e-53  3.9399845989035412e-55  -9.3831545781614817e-55  -2.6439091301041323e-55  -5.4249569843768658e-56  -9.7485023121381300e-57  -1.6226405164601703e-57  -2.5639172850989288e-58  -3.8953529596876234e-59  -5.7326148172709864e-60  -8.2081986877714832e-61  -1.1465016216236226e-61  -1.5643163277266826e-62  -2.0853248663674784e-63  -2.7058970551146688e-64  -3.2322016534717751e-65  0.0000000000000000e+00  0.0000000000000000e+00  -1.8358723294615578e-20  -3.8422942159487075e-20  -3.2553227243810001e-20  -1.8088140836828616e-20  -8.0551025627654676e-21  -2.7749556893702158e-21  -6.6787895542671967e-22  -6.0945537024864647e-23  5.5264410219329023e-23  4.5467964694774664e-23  2.1721179183806858e-23  8.1937208184643128e-24  2.6298512814456474e-24  6.9755795912568933e-25  1.3976599101261290e-25  1.6655726030702892e-26  -8.8929204776250836e-28  -1.1327294063382532e-27  -3.8149362768747839e-28  -9.4394638027451177e-29  -1.9952511613079574e-29  -3.8123189581397465e-30  -6.7543892685866616e-31  -1.1232240883328871e-31  -1.7631232822001661e-32  -2.6154672628272898e-33  -3.6544916487733114e-34  -4.7644544656093113e-35  -5.6743655525811429e-36  -5.8619986966996236e-37  -4.4171335415345481e-38  1.4164580524548638e-40  1.0097704129828427e-39  2.8812601745315325e-40  6.1037901536389968e-41  1.1323476856095619e-41  1.9384516483516159e-42  3.1341769642549264e-43  4.8443414242725835e-44  7.2060612289521351e-45  1.0353097038206448e-45  1.4386898493238194e-46  1.9327917867863030e-47  2.5038657078424965e-48  3.1107481100669649e-49  3.6679499800352732e-50  4.0217934010561881e-51  3.9176699446355453e-52  2.9563039107763645e-53  5.3687544688339285e-55  -4.2148812187027110e-55  -1.2534755683856646e-55  -2.6123995779348112e-56  -4.7266203969462819e-57  -7.8950130837441220e-58  -1.2498489107922312e-58  -1.9008464078096824e-59  -2.7988611004926261e-60  -4.0084308939202037e-61  -5.5991154445156078e-62  -7.6380149068382037e-63  -1.0151091778717092e-63  -1.2480900801794324e-64  0.0000000000000000e+00  0.0000000000000000e+00  1.1511734342345677e-19  -1.1623434868172712e-19  -1.6288428390511623e-19  -1.1471984620521114e-19  -5.9977109766165253e-20  -2.3434614317630148e-20  -7.3172427772636973e-21  -1.6194339827712663e-21  -1.6395919874839470e-23  1.9416468907451717e-22  1.1947268458365376e-22  5.1931718176220014e-23  1.8215753117541660e-23  5.0701859842902768e-24  1.0844165201648849e-24  1.6886584050170139e-25  1.5121757060945614e-26  -1.0955143535484995e-27  -9.0034238269278976e-28  -2.7062964123362716e-28  -6.3156337241575540e-29  -1.2903181803802357e-29  -2.4060032783635219e-30  -4.1756890403034768e-31  -6.8181337068151499e-32  -1.0533101105763718e-32  -1.5423317998296898e-33  -2.1361574574458618e-34  -2.7773959054191272e-35  -3.3305097074169767e-36  -3.5336880113101259e-37  -2.9332689740222194e-38  -7.9721110060006099e-40  3.9950506142070136e-40  1.3085380870109505e-40  2.8785748289599569e-41  5.4228584343464538e-42  9.3492038492672993e-43  1.5165535945565008e-43  2.3471395119399334e-44  3.4924735724945400e-45  5.0168427352017734e-46  6.9694649765252291e-47  9.3617710598375648e-48  1.2131635933548907e-48  1.5089536860342065e-49  1.7840358451166433e-50  1.9673280375012378e-51  1.9411008148368795e-52  1.5208770989278672e-53  4.2934029544208160e-55  -1.7365960437888733e-55  -5.5460646844659817e-56  -1.1781699946317023e-56  -2.1492930989237218e-57  -3.6051880359361019e-58  -5.7205731197143610e-59  -8.7115130503789055e-60  -1.2836198276649574e-60  -1.8390007003875364e-61  -2.5687759514483521e-62  -3.4944759446487527e-63  -4.4079863235714305e-64  0.0000000000000000e+00  0.0000000000000000e+00  2.3962729380364032e-18  4.3905512560908833e-19  -4.8772472269979009e-19  -6.1674134728058834e-19  -3.8589377092557987e-19  -1.7456840664399376e-19  -6.5919924977226743e-20  -1.8453663009683535e-20  -2.8959474700782328e-21  3.4256755504866965e-22  5.5428521079374958e-22  3.0917975797541910e-22  1.1877470012605584e-22  3.3988169841338164e-23  7.5278953633596050e-24  1.3267899618125050e-24  1.8665629435020033e-25  1.9157882869673136e-26  5.3989217735460468e-28  -4.0308784813426584e-28  -1.4768507369807456e-28  -3.6142059866842692e-29  -7.4401125112226204e-30  -1.3781082889196610e-30  -2.3655015435121830e-31  -3.8189617598136879e-32  -5.8424494599950725e-33  -8.4922558805939796e-34  -1.1709413938528081e-34  -1.5213978648476152e-35  -1.8349750042273922e-36  -1.9862374768171515e-37  -1.7591882672551358e-38  -8.0664949995577944e-40  1.4006609670951140e-40  5.6346838530185264e-41  1.2977476512782840e-41  2.4889202501287544e-42  4.3264610702020414e-43  7.0457540725273985e-44  1.0924117367286656e-44  1.6265609382174451e-45  2.3367753715186719e-46  3.2460568990229117e-47  4.3604792046985299e-48  5.6532008297982954e-49  7.0404601032854836e-50  8.3468057481128060e-51  9.2562542771360001e-52  9.2455509059486765e-53  7.4953592348702524e-54  2.7751828859874881e-55  -6.7016221170902117e-56  -2.3454887053759258e-56  -5.0945905486452995e-57  -9.3810992603332613e-58  -1.5810611498332017e-58  -2.5153572706296264e-59  -3.8362015473626333e-60  -5.6572530351656282e-61  -8.1074172799748416e-62  -1.1296339389268147e-62  -1.4601724819996750e-63  0.0000000000000000e+00  0.0000000000000000e+00  2.4098815463351298e-17  1.1916743944934052e-17  1.7712659400266001e-18  -2.3259336517393756e-18  -2.0552735592428450e-18  -1.1736594393810294e-18  -5.1396968407451027e-19  -1.6330086040488523e-19  -3.8977904609617073e-20  -5.1343074328760414e-21  1.8664374320198587e-21  1.7263964983579578e-21  7.1856584419480037e-22  2.0602265803003909e-22  4.5802940614110871e-23  8.4383428817654188e-24  1.3375047249258742e-24  1.8257716041848490e-25  2.0163962220627838e-26  1.3269201398427465e-27  -1.2246898064683413e-28  -7.1653961113180465e-29  -1.8773030978571320e-29  -3.9274124845998843e-30  -7.2929156733506066e-31  -1.2491933904300887e-31  -2.0089753080526063e-32  -3.0597760303455087e-33  -4.4289393580654751e-34  -6.0896128037231585e-35  -7.9125991171589961e-36  -9.5936965250015601e-37  -1.0550549803306232e-37  -9.7834168776219801e-39  -5.6938754898304609e-40  4.1424800204271318e-41  2.3246702054304736e-41  5.6536843596455709e-42  1.1062801628890026e-42  1.9407803295528788e-43  3.1748967766533903e-44  4.9333085439497474e-45  7.3526416097185744e-46  1.0566852946868998e-46  1.4680535945035234e-47  1.9724533571338542e-48  2.5586467519202362e-49  3.1906708689989121e-50  3.7928031011408385e-51  4.2284862129034471e-52  4.2715925780075516e-53  3.5682618254926208e-54  1.5875411011649540e-55  -2.4406991258480244e-56  -9.6014534722280429e-57  -2.1383486839578527e-57  -3.9778885094649165e-58  -6.7387176932469689e-59  -1.0751256269353577e-59  -1.6423380701980251e-60  -2.4238585082456457e-61  -3.4661484412334580e-62  -4.5928442663959187e-63  0.0000000000000000e+00  0.0000000000000000e+00  1.8083049083078140e-16  1.3618254941791123e-16  4.5244982952350684e-17  1.1743530102851010e-18  -7.7031392139756190e-18  -6.9336163987966087e-18  -3.4841250661633341e-18  -1.2721881423445762e-18  -3.9190950352429584e-19  -8.2423432074685231e-20  8.9209847527339638e-22  8.5856472859402823e-21  3.8057499620571574e-21  1.0681569496553032e-21  2.3297740727551067e-22  4.3139550483123362e-23  7.0834911912904870e-24  1.0442952641072578e-24  1.3668635293320165e-25  1.5201243056080911e-26  1.2177979835418657e-27  -3.3769759206054267e-30  -3.0275144612407149e-29  -8.9355039707513548e-30  -1.9368734361050192e-30  -3.6404911686001210e-31  -6.2537379977746868e-32  -1.0047372941285831e-32  -1.5268617210182488e-33  -2.2056275646788714e-34  -3.0297243202084103e-35  -3.9405326549717253e-36  -4.7999271178856726e-37  -5.3448917710941949e-38  -5.1257221430294879e-39  -3.4255645747454789e-40  8.3941794839847330e-42  9.2376922565437226e-42  2.3952126286412529e-42  4.7909254588147330e-43  8.4884785843917314e-44  1.3954662804664363e-44  2.1737533198071406e-45  3.2437335123556222e-46  4.6643666376717057e-47  6.4821285704829836e-48  8.7120808920124078e-49  1.1308317408444203e-49  1.4119824680182700e-50  1.6826849796368455e-51  1.8851899687876632e-52  1.9238627349188569e-53  1.6491285917045049e-54  8.3674475054783908e-56  -8.3822679385972877e-57  -3.8330987744399953e-57  -8.7747145373621283e-58  -1.6500993914452836e-58  -2.8104316855283219e-59  -4.4971673567511450e-60  -6.8804976986403020e-61  -1.0137853121335856e-61  -1.3797029419013897e-62  0.0000000000000000e+00  0.0000000000000000e+00  1.1269783763640181e-15  1.1208310651458250e-15  4.7070701368212725e-16  1.4365214836635020e-16  -1.1267524268072158e-19  -3.3113318643326325e-17  -2.0335328431904275e-17  -9.1175261658095079e-18  -3.3511008270612941e-18  -8.0619456300455392e-19  -6.7444391431481642e-20  3.0092079243500972e-20  1.5512521694330131e-20  4.3291024462619152e-21  9.3630173131971721e-22  1.7541748092501924e-22  2.9761634532739972e-23  4.6392869025771864e-24  6.6543435504763767e-25  8.6891676507149848e-26  9.9588427561216018e-27  8.9483841411398767e-28  3.1284930458197014e-29  -1.1360168733714847e-29  -4.0092136125830758e-30  -9.0717735105823064e-31  -1.7311274711625526e-31  -2.9910607273571121e-32  -4.8147739881750466e-33  -7.3179615383678827e-34  -1.0565898807684587e-34  -1.4511214862049288e-35  -1.8897291128192203e-36  -2.3115447631960180e-37  -2.6004934349731221e-38  -2.5585126774730042e-39  -1.8709925854941805e-40  -6.3941131998212164e-43  3.5464375510375820e-42  9.9091271629986671e-43  2.0293065517381624e-43  3.6331353582189465e-44  6.0038731239371113e-45  9.3777309561522858e-46  1.4013339628463937e-46  2.0165237361470553e-47  2.8035854401667241e-48  3.7696188991161219e-49  4.8962335889735107e-50  6.1211517493255869e-51  7.3117436537424067e-52  8.2280882721431349e-53  8.4728048331178741e-54  7.4246732704750132e-55  4.1530780106182150e-56  -2.6892475122689826e-57  -1.4996568840311957e-57  -3.5362805365390235e-58  -6.7251955408072580e-59  -1.1517501635453887e-59  -1.8483059450540702e-60  -2.8253290212918482e-61  -3.9647153106069038e-62  0.0000000000000000e+00  0.0000000000000000e+00  5.3475229568691294e-15  6.6570443971976976e-15  3.8809965621846402e-15  1.8524799169665873e-15  3.3017999865309936e-16  -8.3750111875242498e-17  -9.4467501245892121e-17  -6.0554951954080620e-17  -2.5602851728607067e-17  -6.6451171470642605e-18  -9.5832131414122110e-19  -1.2375328456977995e-20  3.3847938515412974e-20  1.1598572145402338e-20  2.7704894241657278e-21  5.6527053994144346e-22  1.0373200683645469e-22  1.7426988103464325e-23  2.7017947055667310e-24  3.8635461181045451e-25  5.0415078773120304e-26  5.8389235326174364e-27  5.5471586801000698e-28  2.9935053270408117e-29  -3.6417837685786930e-30  -1.6993481492649507e-30  -4.0634662445167320e-31  -7.9115078864492081e-32  -1.3782830214710456e-32  -2.2257979660008061e-33  -3.3866683970975872e-34  -4.8919281705857821e-35  -6.7228927757131632e-36  -8.7689671124222742e-37  -1.0766706231859976e-37  -1.2214764326192370e-38  -1.2259546651505955e-39  -9.5479813607086541e-41  -2.0464118449556051e-42  1.3171096592590008e-42  4.0154220112390306e-43  8.4304633773041540e-44  1.5255963544402809e-44  2.5346318976614907e-45  3.9702027514461969e-46  5.9418209704864004e-47  8.5574556835420940e-48  1.1903677186335066e-48  1.6012937001771644e-49  2.0812757207544285e-50  2.6050201865868478e-51  3.1183463202296981e-52  3.5230834146831181e-53  3.6565962205925989e-54  3.2647406832821952e-55  1.9670641161659575e-56  -7.8675250199414667e-58  -5.7697522669440139e-58  -1.4039513030763587e-58  -2.7006858307193298e-59  -4.6501180511398207e-60  -7.4652356588813009e-61  -1.0877196237894476e-61  0.0000000000000000e+00  0.0000000000000000e+00  9.0433584448166141e-15  2.5145087541616243e-14  2.7694192554846065e-14  1.5451484364376005e-14  4.0483197143176601e-15  7.4766981476817588e-16  -2.6156577656329300e-16  -3.8580835383094921e-16  -1.8140005214178883e-16  -4.9153648270251015e-17  -8.9207978576698549e-18  -1.1398603258420267e-18  -8.4168158516459777e-20  7.5764366986684256e-21  5.0806024997322468e-21  1.4174740891636819e-21  3.0427456567432037e-22  5.6355578251740522e-23  9.4133104513738462e-24  1.4448734952136305e-24  2.0506847094257949e-25  2.6787212637870665e-26  3.1493764100196668e-27  3.1271719812852637e-28  2.0605815926952447e-29  -8.8353208111516834e-31  -6.8922545403072483e-31  -1.7568884312019946e-31  -3.4954545547494838e-32  -6.1468550189848934e-33  -9.9708661343341648e-34  -1.5203588966324393e-34  -2.1985060901185063e-35  -3.0242677229050911e-36  -3.9512614585154746e-37  -4.8680072177555531e-38  -5.5619683908781741e-39  -5.6717479876604089e-40  -4.6258376134512405e-41  -1.5673490526664201e-42  4.7338059368594093e-43  1.5976549781044171e-43  3.4422364153692555e-44  6.2970072545634549e-45  1.0518415084944695e-45  1.6523426329251002e-46  2.4768379691567777e-47  3.5703940639299420e-48  4.9694094352568136e-49  6.6883051379349523e-50  8.6989059154289971e-51  1.0899852457530800e-51  1.3072778726309239e-52  1.4821376428638441e-53  1.5488929629440371e-54  1.4049565943326376e-55  8.9685346491401755e-57  -1.9724239103120054e-58  -2.1886683011694390e-58  -5.5029365321979695e-59  -1.0705671102554252e-59  -1.8484343086001807e-60  -2.8317329267084493e-61  0.0000000000000000e+00  0.0000000000000000e+00  -1.4077329609746042e-13  -2.1102156176471778e-14  1.5202628311861230e-13  9.5122345892550730e-14  3.9523422242976998e-14  1.4798705172524398e-14  3.6272678201112837e-16  -2.3641457089973554e-15  -1.1329931484247299e-15  -3.0152619240402539e-16  -5.8021783963069189e-17  -9.0483939895945751e-18  -1.1609877376234627e-18  -1.0686614794352789e-19  -1.5109634241264959e-21  2.2297534381976759e-21  6.9232826414036070e-22  1.5061261215209568e-22  2.7944681827845418e-23  4.6739481522802327e-24  7.1958142580765440e-25  1.0253854225377955e-25  1.3454360759572671e-26  1.5960486846425534e-27  1.6283966376628954e-28  1.1997275952388007e-29  -5.9703880966032738e-32  -2.6773816888235575e-31  -7.3611832972632904e-32  -1.5004844259513163e-32  -2.6660746265117479e-33  -4.3457440937208658e-34  -6.6427705606910796e-35  -9