<?xml version="1.0"?>
<VTKFile type="UnstructuredGrid"  version="0.1"  >
<UnstructuredGrid>
<Piece  NumberOfPoints="81" NumberOfCells="128">
<Points>
<DataArray  type="Float64"  NumberOfComponents="3"  format="ascii">0 0 0  0.125 0 0  0.25 0 0  0.375 0 0  0.5 0 0  0.625 0 0  0.75 0 0  0.875 0 0  1 0 0  0 0.125 0  0.125 0.125 0  0.25 0.125 0  0.375 0.125 0  0.5 0.125 0  0.625 0.125 0  0.75 0.125 0  0.875 0.125 0  1 0.125 0  0 0.25 0  0.125 0.25 0  0.25 0.25 0  0.375 0.25 0  0.5 0.25 0  0.625 0.25 0  0.75 0.25 0  0.875 0.25 0  1 0.25 0  0 0.375 0  0.125 0.375 0  0.25 0.375 0  0.375 0.375 0  0.5 0.375 0  0.625 0.375 0  0.75 0.375 0  0.875 0.375 0  1 0.375 0  0 0.5 0  0.125 0.5 0  0.25 0.5 0  0.375 0.5 0  0.5 0.5 0  0.625 0.5 0  0.75 0.5 0  0.875 0.5 0  1 0.5 0  0 0.625 0  0.125 0.625 0  0.25 0.625 0  0.375 0.625 0  0.5 0.625 0  0.625 0.625 0  0.75 0.625 0  0.875 0.625 0  1 0.625 0  0 0.75 0  0.125 0.75 0  0.25 0.75 0  0.375 0.75 0  0.5 0.75 0  0.625 0.75 0  0.75 0.75 0  0.875 0.75 0  1 0.75 0  0 0.875 0  0.125 0.875 0  0.25 0.875 0  0.375 0.875 0  0.5 0.875 0  0.625 0.875 0  0.75 0.875 0  0.875 0.875 0  1 0.875 0  0 1 0  0.125 1 0  0.25 1 0  0.375 1 0  0.5 1 0  0.625 1 0  0.75 1 0  0.875 1 0  1 1 0  </DataArray>
</Points>
<Cells>
<DataArray  type="UInt32"  Name="connectivity"  format="ascii">0 1 10  0 9 10  1 2 11  1 10 11  2 3 12  2 11 12  3 4 13  3 12 13  4 5 14  4 13 14  5 6 15  5 14 15  6 7 16  6 15 16  7 8 17  7 16 17  9 10 19  9 18 19  10 11 20  10 19 20  11 12 21  11 20 21  12 13 22  12 21 22  13 14 23  13 22 23  14 15 24  14 23 24  15 16 25  15 24 25  16 17 26  16 25 26  18 19 28  18 27 28  19 20 29  19 28 29  20 21 30  20 29 30  21 22 31  21 30 31  22 23 32  22 31 32  23 24 33  23 32 33  24 25 34  24 33 34  25 26 35  25 34 35  27 28 37  27 36 37  28 29 38  28 37 38  29 30 39  29 38 39  30 31 40  30 39 40  31 32 41  31 40 41  32 33 42  32 41 42  33 34 43  33 42 43  34 35 44  34 43 44  36 37 46  36 45 46  37 38 47  37 46 47  38 39 48  38 47 48  39 40 49  39 48 49  40 41 50  40 49 50  41 42 51  41 50 51  42 43 52  42 51 52  43 44 53  43 52 53  45 46 55  45 54 55  46 47 56  46 55 56  47 48 57  47 56 57  48 49 58  48 57 58  49 50 59  49 58 59  50 51 60  50 59 60  51 52 61  51 60 61  52 53 62  52 61 62  54 55 64  54 63 64  55 56 65  55 64 65  56 57 66  56 65 66  57 58 67  57 66 67  58 59 68  58 67 68  59 60 69  59 68 69  60 61 70  60 69 70  61 62 71  61 70 71  63 64 73  63 72 73  64 65 74  64 73 74  65 66 75  65 74 75  66 67 76  66 75 76  67 68 77  67 76 77  68 69 78  68 77 78  69 70 79  69 78 79  70 71 80  70 79 80  </DataArray>
<DataArray  type="UInt32"  Name="offsets"  format="ascii">3 6 9 12 15 18 21 24 27 30 33 36 39 42 45 48 51 54 57 60 63 66 69 72 75 78 81 84 87 90 93 96 99 102 105 108 111 114 117 120 123 126 129 132 135 138 141 144 147 150 153 156 159 162 165 168 171 174 177 180 183 186 189 192 195 198 201 204 207 210 213 216 219 222 225 228 231 234 237 240 243 246 249 252 255 258 261 264 267 270 273 276 279 282 285 288 291 294 297 300 303 306 309 312 315 318 321 324 327 330 333 336 339 342 345 348 351 354 357 360 363 366 369 372 375 378 381 384 </DataArray>
<DataArray  type="UInt8"  Name="types"  format="ascii">5 5 5 5 5 5 5 5 5 5 5 5 5 5 5 5 5 5 5 5 5 5 5 5 5 5 5 5 5 5 5 5 5 5 5 5 5 5 5 5 5 5 5 5 5 5 5 5 5 5 5 5 5 5 5 5 5 5 5 5 5 5 5 5 5 5 5 5 5 5 5 5 5 5 5 5 5 5 5 5 5 5 5 5 5 5 5 5 5 5 5 5 5 5 5 5 5 5 5 5 5 5 5 5 5 5 5 5 5 5 5 5 5 5 5 5 5 5 5 5 5 5 5 5 5 5 5 5 </DataArray>
</Cells>
<PointData  Scalars="f_11"> 
<DataArray  type="Float64"  Name="f_11"  format="ascii">2.9200000000000004e+00  2.9356250000000004e+00  2.9825000000000004e+00  3.0606250000000004e+00  3.1700000000000004e+00  3.3106250000000004e+00  3.4825000000000004e+00  3.6856250000000004e+00  3.9200000000000004e+00  2.9668750000000004e+00  2.9824999999999893e+00  3.0293749999999817e+00  3.1074999999999786e+00  3.2168749999999755e+00  3.3574999999999773e+00  3.5293749999999804e+00  3.7324999999999875e+00  3.9668750000000004e+00  3.1075000000000004e+00  3.1231249999999822e+00  3.1699999999999675e+00  3.2481249999999622e+00  3.3574999999999600e+00  3.4981249999999600e+00  3.6699999999999666e+00  3.8731249999999791e+00  4.1074999999999999e+00  3.3418750000000004e+00  3.3574999999999764e+00  3.4043749999999600e+00  3.4824999999999524e+00  3.5918749999999493e+00  3.7324999999999511e+00  3.9043749999999582e+00  4.1074999999999733e+00  4.3418749999999999e+00  3.6700000000000008e+00  3.6856249999999746e+00  3.7324999999999560e+00  3.8106249999999475e+00  3.9199999999999435e+00  4.0606249999999458e+00  4.2324999999999564e+00  4.4356249999999724e+00  4.6699999999999999e+00  4.0918749999999999e+00  4.1074999999999742e+00  4.1543749999999555e+00  4.2324999999999449e+00  4.3418749999999449e+00  4.4824999999999466e+00  4.6543749999999555e+00  4.8574999999999724e+00  5.0918749999999999e+00  4.6074999999999999e+00  4.6231249999999795e+00  4.6699999999999591e+00  4.7481249999999529e+00  4.8574999999999466e+00  4.9981249999999520e+00  5.1699999999999617e+00  5.3731249999999795e+00  5.6074999999999999e+00  5.2168749999999999e+00  5.2324999999999866e+00  5.2793749999999733e+00  5.3574999999999688e+00  5.4668749999999680e+00  5.6074999999999697e+00  5.7793749999999777e+00  5.9824999999999857e+00  6.2168749999999999e+00  5.9199999999999999e+00  5.9356249999999999e+00  5.9824999999999999e+00  6.0606249999999999e+00  6.1699999999999999e+00  6.3106249999999999e+00  6.4824999999999999e+00  6.6856249999999999e+00  6.9199999999999999e+00  </DataArray> 
</PointData> 
</Piece>
</UnstructuredGrid>
</VTKFile>