<?xml version="1.0"?>
<VTKFile type="UnstructuredGrid"  version="0.1"  >
<UnstructuredGrid>
<Piece  NumberOfPoints="961" NumberOfCells="1800">
<Points>
<DataArray  type="Float64"  NumberOfComponents="3"  format="ascii">-2 -2 0  -1.866666666666667 -2 0  -1.733333333333333 -2 0  -1.6 -2 0  -1.466666666666667 -2 0  -1.333333333333333 -2 0  -1.2 -2 0  -1.066666666666667 -2 0  -0.9333333333333333 -2 0  -0.8 -2 0  -0.6666666666666667 -2 0  -0.5333333333333334 -2 0  -0.3999999999999999 -2 0  -0.2666666666666666 -2 0  -0.1333333333333333 -2 0  0 -2 0  0.1333333333333333 -2 0  0.2666666666666666 -2 0  0.3999999999999999 -2 0  0.5333333333333332 -2 0  0.6666666666666665 -2 0  0.7999999999999998 -2 0  0.9333333333333331 -2 0  1.066666666666667 -2 0  1.2 -2 0  1.333333333333333 -2 0  1.466666666666667 -2 0  1.6 -2 0  1.733333333333333 -2 0  1.866666666666667 -2 0  2 -2 0  -2 -1.866666666666667 0  -1.866666666666667 -1.866666666666667 0  -1.733333333333333 -1.866666666666667 0  -1.6 -1.866666666666667 0  -1.466666666666667 -1.866666666666667 0  -1.333333333333333 -1.866666666666667 0  -1.2 -1.866666666666667 0  -1.066666666666667 -1.866666666666667 0  -0.9333333333333333 -1.866666666666667 0  -0.8 -1.866666666666667 0  -0.6666666666666667 -1.866666666666667 0  -0.5333333333333334 -1.866666666666667 0  -0.3999999999999999 -1.866666666666667 0  -0.2666666666666666 -1.866666666666667 0  -0.1333333333333333 -1.866666666666667 0  0 -1.866666666666667 0  0.1333333333333333 -1.866666666666667 0  0.2666666666666666 -1.866666666666667 0  0.3999999999999999 -1.866666666666667 0  0.5333333333333332 -1.866666666666667 0  0.6666666666666665 -1.866666666666667 0  0.7999999999999998 -1.866666666666667 0  0.9333333333333331 -1.866666666666667 0  1.066666666666667 -1.866666666666667 0  1.2 -1.866666666666667 0  1.333333333333333 -1.866666666666667 0  1.466666666666667 -1.866666666666667 0  1.6 -1.866666666666667 0  1.733333333333333 -1.866666666666667 0  1.866666666666667 -1.866666666666667 0  2 -1.866666666666667 0  -2 -1.733333333333333 0  -1.866666666666667 -1.733333333333333 0  -1.733333333333333 -1.733333333333333 0  -1.6 -1.733333333333333 0  -1.466666666666667 -1.733333333333333 0  -1.333333333333333 -1.733333333333333 0  -1.2 -1.733333333333333 0  -1.066666666666667 -1.733333333333333 0  -0.9333333333333333 -1.733333333333333 0  -0.8 -1.733333333333333 0  -0.6666666666666667 -1.733333333333333 0  -0.5333333333333334 -1.733333333333333 0  -0.3999999999999999 -1.733333333333333 0  -0.2666666666666666 -1.733333333333333 0  -0.1333333333333333 -1.733333333333333 0  0 -1.733333333333333 0  0.1333333333333333 -1.733333333333333 0  0.2666666666666666 -1.733333333333333 0  0.3999999999999999 -1.733333333333333 0  0.5333333333333332 -1.733333333333333 0  0.6666666666666665 -1.733333333333333 0  0.7999999999999998 -1.733333333333333 0  0.9333333333333331 -1.733333333333333 0  1.066666666666667 -1.733333333333333 0  1.2 -1.733333333333333 0  1.333333333333333 -1.733333333333333 0  1.466666666666667 -1.733333333333333 0  1.6 -1.733333333333333 0  1.733333333333333 -1.733333333333333 0  1.866666666666667 -1.733333333333333 0  2 -1.733333333333333 0  -2 -1.6 0  -1.866666666666667 -1.6 0  -1.733333333333333 -1.6 0  -1.6 -1.6 0  -1.466666666666667 -1.6 0  -1.333333333333333 -1.6 0  -1.2 -1.6 0  -1.066666666666667 -1.6 0  -0.9333333333333333 -1.6 0  -0.8 -1.6 0  -0.6666666666666667 -1.6 0  -0.5333333333333334 -1.6 0  -0.3999999999999999 -1.6 0  -0.2666666666666666 -1.6 0  -0.1333333333333333 -1.6 0  0 -1.6 0  0.1333333333333333 -1.6 0  0.2666666666666666 -1.6 0  0.3999999999999999 -1.6 0  0.5333333333333332 -1.6 0  0.6666666666666665 -1.6 0  0.7999999999999998 -1.6 0  0.9333333333333331 -1.6 0  1.066666666666667 -1.6 0  1.2 -1.6 0  1.333333333333333 -1.6 0  1.466666666666667 -1.6 0  1.6 -1.6 0  1.733333333333333 -1.6 0  1.866666666666667 -1.6 0  2 -1.6 0  -2 -1.466666666666667 0  -1.866666666666667 -1.466666666666667 0  -1.733333333333333 -1.466666666666667 0  -1.6 -1.466666666666667 0  -1.466666666666667 -1.466666666666667 0  -1.333333333333333 -1.466666666666667 0  -1.2 -1.466666666666667 0  -1.066666666666667 -1.466666666666667 0  -0.9333333333333333 -1.466666666666667 0  -0.8 -1.466666666666667 0  -0.6666666666666667 -1.466666666666667 0  -0.5333333333333334 -1.466666666666667 0  -0.3999999999999999 -1.466666666666667 0  -0.2666666666666666 -1.466666666666667 0  -0.1333333333333333 -1.466666666666667 0  0 -1.466666666666667 0  0.1333333333333333 -1.466666666666667 0  0.2666666666666666 -1.466666666666667 0  0.3999999999999999 -1.466666666666667 0  0.5333333333333332 -1.466666666666667 0  0.6666666666666665 -1.466666666666667 0  0.7999999999999998 -1.466666666666667 0  0.9333333333333331 -1.466666666666667 0  1.066666666666667 -1.466666666666667 0  1.2 -1.466666666666667 0  1.333333333333333 -1.466666666666667 0  1.466666666666667 -1.466666666666667 0  1.6 -1.466666666666667 0  1.733333333333333 -1.466666666666667 0  1.866666666666667 -1.466666666666667 0  2 -1.466666666666667 0  -2 -1.333333333333333 0  -1.866666666666667 -1.333333333333333 0  -1.733333333333333 -1.333333333333333 0  -1.6 -1.333333333333333 0  -1.466666666666667 -1.333333333333333 0  -1.333333333333333 -1.333333333333333 0  -1.2 -1.333333333333333 0  -1.066666666666667 -1.333333333333333 0  -0.9333333333333333 -1.333333333333333 0  -0.8 -1.333333333333333 0  -0.6666666666666667 -1.333333333333333 0  -0.5333333333333334 -1.333333333333333 0  -0.3999999999999999 -1.333333333333333 0  -0.2666666666666666 -1.333333333333333 0  -0.1333333333333333 -1.333333333333333 0  0 -1.333333333333333 0  0.1333333333333333 -1.333333333333333 0  0.2666666666666666 -1.333333333333333 0  0.3999999999999999 -1.333333333333333 0  0.5333333333333332 -1.333333333333333 0  0.6666666666666665 -1.333333333333333 0  0.7999999999999998 -1.333333333333333 0  0.9333333333333331 -1.333333333333333 0  1.066666666666667 -1.333333333333333 0  1.2 -1.333333333333333 0  1.333333333333333 -1.333333333333333 0  1.466666666666667 -1.333333333333333 0  1.6 -1.333333333333333 0  1.733333333333333 -1.333333333333333 0  1.866666666666667 -1.333333333333333 0  2 -1.333333333333333 0  -2 -1.2 0  -1.866666666666667 -1.2 0  -1.733333333333333 -1.2 0  -1.6 -1.2 0  -1.466666666666667 -1.2 0  -1.333333333333333 -1.2 0  -1.2 -1.2 0  -1.066666666666667 -1.2 0  -0.9333333333333333 -1.2 0  -0.8 -1.2 0  -0.6666666666666667 -1.2 0  -0.5333333333333334 -1.2 0  -0.3999999999999999 -1.2 0  -0.2666666666666666 -1.2 0  -0.1333333333333333 -1.2 0  0 -1.2 0  0.1333333333333333 -1.2 0  0.2666666666666666 -1.2 0  0.3999999999999999 -1.2 0  0.5333333333333332 -1.2 0  0.6666666666666665 -1.2 0  0.7999999999999998 -1.2 0  0.9333333333333331 -1.2 0  1.066666666666667 -1.2 0  1.2 -1.2 0  1.333333333333333 -1.2 0  1.466666666666667 -1.2 0  1.6 -1.2 0  1.733333333333333 -1.2 0  1.866666666666667 -1.2 0  2 -1.2 0  -2 -1.066666666666667 0  -1.866666666666667 -1.066666666666667 0  -1.733333333333333 -1.066666666666667 0  -1.6 -1.066666666666667 0  -1.466666666666667 -1.066666666666667 0  -1.333333333333333 -1.066666666666667 0  -1.2 -1.066666666666667 0  -1.066666666666667 -1.066666666666667 0  -0.9333333333333333 -1.066666666666667 0  -0.8 -1.066666666666667 0  -0.6666666666666667 -1.066666666666667 0  -0.5333333333333334 -1.066666666666667 0  -0.3999999999999999 -1.066666666666667 0  -0.2666666666666666 -1.066666666666667 0  -0.1333333333333333 -1.066666666666667 0  0 -1.066666666666667 0  0.1333333333333333 -1.066666666666667 0  0.2666666666666666 -1.066666666666667 0  0.3999999999999999 -1.066666666666667 0  0.5333333333333332 -1.066666666666667 0  0.6666666666666665 -1.066666666666667 0  0.7999999999999998 -1.066666666666667 0  0.9333333333333331 -1.066666666666667 0  1.066666666666667 -1.066666666666667 0  1.2 -1.066666666666667 0  1.333333333333333 -1.066666666666667 0  1.466666666666667 -1.066666666666667 0  1.6 -1.066666666666667 0  1.733333333333333 -1.066666666666667 0  1.866666666666667 -1.066666666666667 0  2 -1.066666666666667 0  -2 -0.9333333333333333 0  -1.866666666666667 -0.9333333333333333 0  -1.733333333333333 -0.9333333333333333 0  -1.6 -0.9333333333333333 0  -1.466666666666667 -0.9333333333333333 0  -1.333333333333333 -0.9333333333333333 0  -1.2 -0.9333333333333333 0  -1.066666666666667 -0.9333333333333333 0  -0.9333333333333333 -0.9333333333333333 0  -0.8 -0.9333333333333333 0  -0.6666666666666667 -0.9333333333333333 0  -0.5333333333333334 -0.9333333333333333 0  -0.3999999999999999 -0.9333333333333333 0  -0.2666666666666666 -0.9333333333333333 0  -0.1333333333333333 -0.9333333333333333 0  0 -0.9333333333333333 0  0.1333333333333333 -0.9333333333333333 0  0.2666666666666666 -0.9333333333333333 0  0.3999999999999999 -0.9333333333333333 0  0.5333333333333332 -0.9333333333333333 0  0.6666666666666665 -0.9333333333333333 0  0.7999999999999998 -0.9333333333333333 0  0.9333333333333331 -0.9333333333333333 0  1.066666666666667 -0.9333333333333333 0  1.2 -0.9333333333333333 0  1.333333333333333 -0.9333333333333333 0  1.466666666666667 -0.9333333333333333 0  1.6 -0.9333333333333333 0  1.733333333333333 -0.9333333333333333 0  1.866666666666667 -0.9333333333333333 0  2 -0.9333333333333333 0  -2 -0.8 0  -1.866666666666667 -0.8 0  -1.733333333333333 -0.8 0  -1.6 -0.8 0  -1.466666666666667 -0.8 0  -1.333333333333333 -0.8 0  -1.2 -0.8 0  -1.066666666666667 -0.8 0  -0.9333333333333333 -0.8 0  -0.8 -0.8 0  -0.6666666666666667 -0.8 0  -0.5333333333333334 -0.8 0  -0.3999999999999999 -0.8 0  -0.2666666666666666 -0.8 0  -0.1333333333333333 -0.8 0  0 -0.8 0  0.1333333333333333 -0.8 0  0.2666666666666666 -0.8 0  0.3999999999999999 -0.8 0  0.5333333333333332 -0.8 0  0.6666666666666665 -0.8 0  0.7999999999999998 -0.8 0  0.9333333333333331 -0.8 0  1.066666666666667 -0.8 0  1.2 -0.8 0  1.333333333333333 -0.8 0  1.466666666666667 -0.8 0  1.6 -0.8 0  1.733333333333333 -0.8 0  1.866666666666667 -0.8 0  2 -0.8 0  -2 -0.6666666666666667 0  -1.866666666666667 -0.
[...]
<PointData  Scalars="f_1363"> 
<DataArray  type="Float64"  Name="f_1363"  format="ascii">0.0000000000000000e+00  0.0000000000000000e+00  0.0000000000000000e+00  0.0000000000000000e+00  0.0000000000000000e+00  0.0000000000000000e+00  0.0000000000000000e+00  0.0000000000000000e+00  0.0000000000000000e+00  0.0000000000000000e+00  0.0000000000000000e+00  0.0000000000000000e+00  0.0000000000000000e+00  0.0000000000000000e+00  0.0000000000000000e+00  0.0000000000000000e+00  0.0000000000000000e+00  0.0000000000000000e+00  0.0000000000000000e+00  0.0000000000000000e+00  0.0000000000000000e+00  0.0000000000000000e+00  0.0000000000000000e+00  0.0000000000000000e+00  0.0000000000000000e+00  0.0000000000000000e+00  0.0000000000000000e+00  0.0000000000000000e+00  0.0000000000000000e+00  0.0000000000000000e+00  0.0000000000000000e+00  0.0000000000000000e+00  1.3033816286172668e-04  2.5901712447225770e-04  3.8472512859356151e-04  5.0613268226493678e-04  6.2193651538586595e-04  7.3088438062348716e-04  8.3179311605597185e-04  9.2356371929410786e-04  1.0051946237848793e-03  1.0757935395952285e-03  1.1345879273599302e-03  1.1809340638748065e-03  1.2143246186686323e-03  1.2343946534772142e-03  1.2409259656144011e-03  1.2338497150008515e-03  1.2132472994306389e-03  1.1793494711226074e-03  1.1325337178843362e-03  1.0733199628973772e-03  1.0023646673376606e-03  9.2045344981611058e-04  8.2849236777016871e-04  7.2749804405845169e-04  6.1858688182951920e-04  5.0296373145325174e-04  3.8191066674087037e-04  2.5677734138548284e-04  1.2897690764419482e-04  0.0000000000000000e+00  0.0000000000000000e+00  2.5901712447225781e-04  5.1488170421274131e-04  7.6489126087145093e-04  1.0063716869071579e-03  1.2367198937448087e-03  1.4534404925484478e-03  1.6541777915583225e-03  1.8367444227120131e-03  1.9991472283239203e-03  2.1396105930157490e-03  2.2565971765554772e-03  2.3488258978287399e-03  2.4152869821332116e-03  2.4552538844139233e-03  2.4682919253204618e-03  2.4542635169930715e-03  2.4133299060419026e-03  2.3459494182655606e-03  2.2528722498895192e-03  2.1351319106786741e-03  1.9940334831775042e-03  1.8311389188648917e-03  1.6482496477820982e-03  1.4473868389745543e-03  1.2307697286355918e-03  1.0007925605608279e-03  7.6000091769024068e-04  5.1106865896487284e-04  2.5677734138548290e-04  0.0000000000000000e+00  0.0000000000000000e+00  3.8472512859356146e-04  7.6489126087145071e-04  1.1364216851630527e-03  1.4953129480191881e-03  1.8376819860844626e-03  2.1598126024023404e-03  2.4581993885203065e-03  2.7295886332556626e-03  2.9710160363015286e-03  3.1798410172272987e-03  3.3537773443008813e-03  3.4909197672007230e-03  3.5897663310871055e-03  3.6492360722345562e-03  3.6686818416170148e-03  3.6478980670975386e-03  3.5871233422473448e-03  3.4870378155546834e-03  3.3487554433222601e-03  3.1738112587138974e-03  2.9641438947584729e-03  2.7220736784358099e-03  2.4502766858590396e-03  2.1517552170995857e-03  1.8298052182092635e-03  1.4879812532506476e-03  1.1300597065312154e-03  7.6000091769024068e-04  3.8191066674087053e-04  0.0000000000000000e+00  0.0000000000000000e+00  5.0613268226493678e-04  1.0063716869071582e-03  1.4953129480191881e-03  1.9676633296973932e-03  2.4182977159193614e-03  2.8423161952408926e-03  3.2350994127394086e-03  3.5923610264675544e-03  3.9101965829805236e-03  4.1851282550620294e-03  4.4141449222486074e-03  4.5947370943126139e-03  4.7249262081804216e-03  4.8032878790362108e-03  4.8289687577176832e-03  4.8016967365481075e-03  4.7217843503171084e-03  4.5901253331136578e-03  4.4081844095893363e-03  4.1779805154919933e-03  3.9020637519796876e-03  3.5834864772588257e-03  3.2257690246321109e-03  2.8328606061986529e-03  2.4090960138674418e-03  1.9591487567890359e-03  1.4879812532506479e-03  1.0007925605608284e-03  5.0296373145325196e-04  0.0000000000000000e+00  0.0000000000000000e+00  6.2193651538586616e-04  1.2367198937448093e-03  1.8376819860844629e-03  2.4182977159193627e-03  2.9722541957639841e-03  3.4935193508111645e-03  3.9764085662643807e-03  4.4156482023353424e-03  4.8064350539654610e-03  5.1444909604277111e-03  5.4261118404476793e-03  5.6482104812797616e-03  5.8083524687150487e-03  5.9047847204296974e-03  5.9364561809810692e-03  5.9030303521440579e-03  5.8048894633591502e-03  5.6431302283076763e-03  5.4195512785622504e-03  5.1366325071287421e-03  4.7975066870520359e-03  4.4059238473947385e-03  3.9662089860115031e-03  3.4832137713586005e-03  2.9622629290202659e-03  2.4090960138674427e-03  1.8298052182092646e-03  1.2307697286355924e-03  6.1858688182951974e-04  0.0000000000000000e+00  0.0000000000000000e+00  7.3088438062348792e-04  1.4534404925484489e-03  2.1598126024023421e-03  2.8423161952408952e-03  3.4935193508111653e-03  4.1063228586777651e-03  4.6740378784339183e-03  5.1904600146275917e-03  5.6499387745129340e-03  6.0474414587764567e-03  6.3786106013926014e-03  6.6398141390896963e-03  6.8281875666655291e-03  6.9416674295726764e-03  6.9790156227405708e-03  6.9398341034115317e-03  6.8245697817296523e-03  6.6345095197349636e-03  6.3717653398277637e-03  6.0392501097418817e-03  5.6406441248633924e-03  5.1803531433465911e-03  4.6634585389169194e-03  4.0956603154249822e-03  3.4832137713586013e-03  2.8328606061986538e-03  2.1517552170995870e-03  1.4473868389745551e-03  7.2749804405845234e-04  0.0000000000000000e+00  0.0000000000000000e+00  8.3179311605597337e-04  1.6541777915583264e-03  2.4581993885203113e-03  3.2350994127394134e-03  3.9764085662643842e-03  4.6740378784339192e-03  5.3203668345170986e-03  5.9083273849863567e-03  6.4314827374887858e-03  6.8840998728685677e-03  7.2612147770198887e-03  7.5586894450571738e-03  7.7732597992912385e-03  7.9025737722010596e-03  7.9452189412499256e-03  7.9007392619743506e-03  7.7696406243759628e-03  7.5533851481956139e-03  7.2543743266795004e-03  6.8759213169237105e-03  6.4222128489736675e-03  5.8982613775971724e-03  5.3098482234240274e-03  4.6634585389169186e-03  3.9662089860115031e-03  3.2257690246321130e-03  2.4502766858590396e-03  1.6482496477820982e-03  8.2849236777016904e-04  0.0000000000000000e+00  0.0000000000000000e+00  9.2356371929410959e-04  1.8367444227120170e-03  2.7295886332556673e-03  3.5923610264675600e-03  4.4156482023353476e-03  5.1904600146275952e-03  5.9083273849863576e-03  6.5613954649855668e-03  7.1425109901522748e-03  7.6453026811492443e-03  8.0642535833273330e-03  8.3947642973798125e-03  8.6332061437393789e-03  8.7769634237129524e-03  8.8244640908603580e-03  8.7751983236510848e-03  8.6297246891310960e-03  8.3896637991733719e-03  8.0576795764116006e-03  7.6374484561278671e-03  7.1336170434253658e-03  6.5517489132825785e-03  5.8982613775971715e-03  5.1803531433465867e-03  4.4059238473947342e-03  3.5834864772588235e-03  2.7220736784358077e-03  1.8311389188648904e-03  9.2045344981611004e-04  0.0000000000000000e+00  0.0000000000000000e+00  1.0051946237848806e-03  1.9991472283239233e-03  2.9710160363015320e-03  3.9101965829805296e-03  4.8064350539654679e-03  5.6499387745129383e-03  6.4314827374887902e-03  7.1425109901522782e-03  7.7752316650667288e-03  8.3227044361133089e-03  8.7789192067440538e-03  9.1388648960634370e-03  9.3985872812887023e-03  9.5552349836007487e-03  9.6070928470453273e-03  9.5536021529097279e-03  9.3953673281430040e-03  9.1341490369783625e-03  8.7728437795759773e-03  8.3154503493008680e-03  7.7670237106350782e-03  7.1336170434253693e-03  6.4222128489736675e-03  5.6406441248633907e-03  4.7975066870520316e-03  3.9020637519796880e-03  2.9641438947584729e-03  1.9940334831775042e-03  1.0023646673376606e-03  0.0000000000000000e+00  0.0000000000000000e+00  1.0757935395952305e-03  2.1396105930157534e-03  3.1798410172273052e-03  4.1851282550620364e-03  5.1444909604277198e-03  6.0474414587764654e-03  6.8840998728685763e-03  7.6453026811492478e-03  8.3227044361133106e-03  8.9088713582349110e-03  9.3973655416028611e-03  9.7828185640445146e-03  1.0060993389909264e-02  1.0228833588568163e-02  1.0284499064221622e-02  1.0227387698066127e-02  1.0058142534783715e-02  9.7786443919747508e-03  9.3919900223754672e-03  8.9024562027809756e-03  8.3154503493008732e-03  7.6374484561278749e-03  6.8759213169237148e-03  6.0392501097418809e-03  5.1366325071287404e-03  4.1779805154919950e-03  3.1738112587138979e-03  2.1351319106786746e-03  1.0733199628973776e-03  0.0000000000000000e+00  0.0000000000000000e+00  1.1345879273599324e-03  2.2565971765554811e-03  3.3537773443008869e-03  4.4141449222486152e-03  5.4261118404476897e-03  6.3786106013926109e-03  7.2612147770199009e-03  8.0642535833273365e-03  8.7789192067440590e-03  9.3973655416028645e-03  9.9127970160075140e-03  1.0319546239434534e-02  1.0613139302994507e-02  1.0790347703316799e-02  1.0849226041472230e-02  1.0789134864076278e-02  1.0610748256711039e-02  1.0316046059734657e-02  9.9082908415747822e-03  9.3919900223754741e-03  8.7728437795759895e-03  8.0576795764116110e-03  7.2543743266795064e-03  6.3717653398277681e-03  5.4195512785622521e-03  4.4081844095893389e-03  3.3487554433222644e-03  2.2528722498895213e-03  1.1325337178843373e-03  0.0000000000000000e+00  0.0000000000000000e+00  1.1809340638748082e-03  2.3488258978287429e-03  3.4909197672007273e-03  4.5947370943126209e-03  5.6482104812797694e-03  6.6398141390897059e-03  7.5586894450571851e-03  8.3947642973798194e-03  9.1388648960634405e-03  9.7828185640445146e-03  1.0319546239434530e-02  1.0743143326041553e-02  1.1048947688843650e-02  1.1233593725119175e-02  1.1295051628438333e-02  1.1232651186337461e-02  1.1047089704860093e-02  1.0740423923465652e-02  1.0316046059734655e-02  9.7786443919747508e-03  9.1341490369783677e-03  8.3896637991733771e-03  7.5533851481956139e-03  6.6345095197349610e-03  5.6431302283076754e-03  4.5901253331136586e-03  3.4870378155546847e-03  2.3459494182655610e-03  1.1793494711226080e-03  0.0000000000000000e+00  0.0000000000000000e+00  1.2143246186686338e-03  2.4152869821332159e-03  3.5897663310871103e-03  4.7249262081804294e-03  5.8083524687150547e-03  6.8281875666655386e-03  7.7732597992912489e-03  8.6332061437393859e-03  9.3985872812887075e-03  1.0060993389909271e-02  1.0613139302994514e-02  1.1048947688843656e-02  1.1363619006463358e-02  1.1553687140060852e-02  1.1617059805272835e-02  1.1553043049285271e-02  1.1362349425965536e-02  1.1047089704860080e-02  1.0610748256711031e-02  1.0058142534783706e-02  9.3953673281429971e-03  8.6297246891310943e-03  7.7696406243759576e-03  6.8245697817296410e-03  5.8048894633591416e-03  4.7217843503171014e-03  3.5871233422473418e-03  2.4133299060419000e-03  1.2132472994306380e-03  0.0000000000000000e+00  0.0000000000000000e+00  1.2343946534772166e-03  2.4552538844139294e-03  3.6492360722345640e-03  4.8032878790362204e-03  5.9047847204297104e-03  6.9416674295726911e-03  7.9025737722010752e-03  8.7769634237129628e-03  9.5552349836007557e-03  1.0228833588568173e-02  1.0790347703316813e-02  1.1233593725119185e-02  1.1553687140060854e-02  1.1747099117065854e-02  1.1811697618719808e-02  1.1746772340063759e-02  1.1553043049285262e-02  1.1232651186337440e-02  1.0789134864076245e-02  1.0227387698066106e-02  9.5536021529097105e-03  8.7751983236510726e-03  7.9007392619743350e-03  6.9398341034115144e-03  5.9030303521440432e-03  4.8016967365480979e-03  3.6478980670975338e-03  2.4542635169930663e-03  1.2338497150008484e-03  0.0000000000000000e+00  0.0000000000000000e+00  1.2409259656144037e-03  2.4682919253204661e-03  3.6686818416170239e-03  4.8289687577176936e-03  5.9364561809810857e-03  6.9790156227405873e-03  7.9452189412499447e-03  8.8244640908603737e-03  9.6070928470453447e-03  1.0284499064221639e-02  1.0849226041472241e-02  1.1295051628438343e-02  1.1617059805272844e-02  1.1811697618719813e-02  1.1876816549479426e-02  1.1811697618719802e-02  1.1617059805272818e-02  1.1295051628438302e-02  1.0849226041472187e-02  1.0284499064221594e-02  9.6070928470453031e-03  8.8244640908603407e-03  7.9452189412499083e-03  6.9790156227405482e-03  5.9364561809810467e-03  4.8289687577176667e-03  3.6686818416170027e-03  2.4682919253204510e-03  1.2409259656143963e-03  0.0000000000000000e+00  0.0000000000000000e+00  1.2338497150008547e-03  2.4542635169930789e-03  3.6478980670975516e-03  4.8016967365481205e-03  5.9030303521440744e-03  6.9398341034115490e-03  7.9007392619743662e-03  8.7751983236511039e-03  9.5536021529097521e-03  1.0227387698066144e-02  1.0789134864076289e-02  1.1232651186337475e-02  1.1553043049285285e-02  1.1746772340063777e-02  1.1811697618719804e-02  1.1747099117065842e-02  1.1553687140060826e-02  1.1233593725119145e-02  1.0790347703316758e-02  1.0228833588568126e-02  9.5552349836007158e-03  8.7769634237129263e-03  7.9025737722010336e-03  6.9416674295726477e-03  5.9047847204296705e-03  4.8032878790361909e-03  3.6492360722345405e-03  2.4552538844139120e-03  1.2343946534772085e-03  0.0000000000000000e+00  0.0000000000000000e+00  1.2132472994306424e-03  2.4133299060419095e-03  3.5871233422473557e-03  4.7217843503171214e-03  5.8048894633591667e-03  6.8245697817296653e-03  7.7696406243759793e-03  8.6297246891311151e-03  9.3953673281430179e-03  1.0058142534783737e-02  1.0610748256711060e-02  1.1047089704860113e-02  1.1362349425965560e-02  1.1553043049285274e-02  1.1617059805272825e-02  1.1553687140060831e-02  1.1363619006463325e-02  1.1048947688843607e-02  1.0613139302994455e-02  1.0060993389909220e-02  9.3985872812886641e-03  8.6332061437393477e-03  7.7732597992912038e-03  6.8281875666654935e-03  5.8083524687150183e-03  4.7249262081803991e-03  3.5897663310870877e-03  2.4152869821331994e-03  1.2143246186686260e-03  0.0000000000000000e+00  0.0000000000000000e+00  1.1793494711226109e-03  2.3459494182655684e-03  3.4870378155546933e-03  4.5901253331136708e-03  5.6431302283076927e-03  6.6345095197349775e-03  7.5533851481956260e-03  8.3896637991733875e-03  9.1341490369783816e-03  9.7786443919747716e-03  1.0316046059734685e-02  1.0740423923465678e-02  1.1047089704860113e-02  1.1232651186337461e-02  1.1295051628438316e-02  1.1233593725119151e-02  1.1048947688843614e-02  1.0743143326041503e-02  1.0319546239434471e-02  9.7828185640444591e-03  9.1388648960633867e-03  8.3947642973797726e-03  7.5586894450571330e-03  6.6398141390896573e-03  5.6482104812797303e-03  4.5947370943125879e-03  3.4909197672007017e-03  2.3488258978287247e-03  1.1809340638747994e-03  0.0000000000000000e+00  0.0000000000000000e+00  1.1325337178843399e-03  2.2528722498895270e-03  3.3487554433222692e-03  4.4081844095893458e-03  5.4195512785622634e-03  6.3717653398277776e-03  7.2543743266795134e-03  8.0576795764116145e-03  8.7728437795759964e-03  9.3919900223754897e-03  9.9082908415748083e-03  1.0316046059734685e-02  1.0610748256711069e-02  1.0789134864076271e-02  1.0849226041472208e-02  1.0790347703316775e-02  1.0613139302994465e-02  1.0319546239434480e-02  9.9127970160074567e-03  9.3973655416028090e-03  8.7789192067440069e-03  8.0642535833272914e-03  7.2612147770198462e-03  6.3786106013925632e-03  5.4261118404476481e-03  4.4141449222485822e-03  3.3537773443008605e-03  2.2565971765554616e-03  1.1345879273599228e-03  0.0000000000000000e+00  0.0000000000000000e+00  1.0733199628973800e-03  2.1351319106786798e-03  3.1738112587139048e-03  4.1779805154920037e-03  5.1366325071287551e-03  6.0392501097418947e-03  6.8759213169237244e-03  7.6374484561278801e-03  8.3154503493008836e-03  8.9024562027809947e-03  9.3919900223754932e-03  9.7786443919747734e-03  1.0058142534783730e-02  1.0227387698066123e-02  1.0284499064221610e-02  1.0228833588568137e-02  1.0060993389909227e-02  9.7828185640444678e-03  9.3973655416028107e-03  8.9088713582348659e-03  8.3227044361132724e-03  7.6453026811492061e-03  6.8840998728685347e-03  6.0474414587764229e-03  5.1444909604276825e-03  4.1851282550620060e-03  3.1798410172272805e-03  2.1396105930157369e-03  1.0757935395952227e-03  0.0000000000000000e+00  0.0000000000000000e+00  1.0023646673376636e-03  1.9940334831775094e-03  2.9641438947584798e-03  3.9020637519796971e-03  4.7975066870520455e-03  5.6406441248634046e-03  6.4222128489736813e-03  7.1336170434253754e-03  7.7670237106350860e-03  8.3154503493008871e-03  8.7728437795759999e-03  9.1341490369783798e-03  9.3953673281430040e-03  9.5536021529097227e-03  9.6070928470453152e-03  9.5552349836007244e-03  9.3985872812886746e-03  9.1388648960633971e-03  8.7789192067440139e-03  8.3227044361132742e-03  7.7752316650666949e-03  7.1425109901522427e-03  6.4314827374887537e-03  5.6499387745129028e-03  4.8064350539654315e-03  3.9101965829805027e-03  2.9710160363015103e-03  1.9991472283239094e-03  1.0051946237848739e-03  0.0000000000000000e+00  0.0000000000000000e+00  9.2045344981611253e-04  1.8311389188648956e-03  2.7220736784358147e-03  3.5834864772588317e-03  4.4059238473947446e-03  5.1803531433465997e-03  5.8982613775971846e-03  6.5517489132825880e-03  7.1336170434253797e-03  7.6374484561278844e-03  8.0576795764116197e-03  8.3896637991733858e-03  8.6297246891311047e-03  8.7751983236510848e-03  8.8244640908603511e-03  8.7769634237129367e-03  8.6332061437393599e-03  8.3947642973797847e-03  8.0642535833273018e-03  7.6453026811492131e-03  7.1425109901522470e-03  6.5613954649855408e-03  5.9083273849863290e-03  5.1904600146275631e-03  4.4156482023353172e-03  3.5923610264675361e-03  2.7295886332556495e-03  1.8367444227120047e-03  9.2356371929410352e-04  0.0000000000000000e+00  0.0000000000000000e+00  8.2849236777017012e-04  1.6482496477821010e-03  2.4502766858590440e-03  3.2257690246321143e-03  3.9662089860115074e-03  4.6634585389169255e-03  5.3098482234240386e-03  5.8982613775971776e-03  6.4222128489736709e-03  6.8759213169237200e-03  7.2543743266795108e-03  7.5533851481956182e-03  7.7696406243759680e-03  7.9007392619743454e-03  7.9452189412499222e-03  7.9025737722010474e-03  7.7732597992912168e-03  7.5586894450571452e-03  7.2612147770198636e-03  6.8840998728685399e-03  6.4314827374887572e-03  5.9083273849863281e-03  5.3203668345170674e-03  4.6740378784338897e-03  3.9764085662643556e-03  3.2350994127393904e-03  2.4581993885202935e-03  1.6541777915583145e-03  8.3179311605596730e-04  0.0000000000000000e+00  0.0000000000000000e+00  7.2749804405845256e-04  1.4473868389745562e-03  2.1517552170995887e-03  2.8328606061986555e-03  3.4832137713586031e-03  4.0956603154249866e-03  4.6634585389169212e-03  5.1803531433465928e-03  5.6406441248633924e-03  6.0392501097418843e-03  6.3717653398277689e-03  6.6345095197349645e-03  6.8245697817296471e-03  6.9398341034115265e-03  6.9790156227405612e-03  6.9416674295726590e-03  6.8281875666655065e-03  6.6398141390896694e-03  6.3786106013925736e-03  6.0474414587764307e-03  5.6499387745129089e-03  5.1904600146275657e-03  4.6740378784338914e-03  4.1063228586777382e-03  3.4935193508111410e-03  2.8423161952408748e-03  2.1598126024023265e-03  1.4534404925484385e-03  7.3088438062348239e-04  0.0000000000000000e+00  0.0000000000000000e+00  6.1858688182951985e-04  1.2307697286355933e-03  1.8298052182092656e-03  2.4090960138674440e-03  2.9622629290202685e-03  3.4832137713586031e-03  3.9662089860115039e-03  4.4059238473947377e-03  4.7975066870520342e-03  5.1366325071287421e-03  5.4195512785622521e-03  5.6431302283076780e-03  5.8048894633591468e-03  5.9030303521440545e-03  5.9364561809810631e-03  5.9047847204296818e-03  5.8083524687150253e-03  5.6482104812797390e-03  5.4261118404476559e-03  5.1444909604276877e-03  4.8064350539654367e-03  4.4156482023353207e-03  3.9764085662643573e-03  3.4935193508111428e-03  2.9722541957639642e-03  2.4182977159193457e-03  1.8376819860844505e-03  1.2367198937448009e-03  6.2193651538586128e-04  0.0000000000000000e+00  0.0000000000000000e+00  5.0296373145325229e-04  1.0007925605608292e-03  1.4879812532506492e-03  1.9591487567890372e-03  2.4090960138674448e-03  2.8328606061986551e-03  3.2257690246321117e-03  3.5834864772588239e-03  3.9020637519796880e-03  4.1779805154919950e-03  4.4081844095893389e-03  4.5901253331136612e-03  4.7217843503171084e-03  4.8016967365481049e-03  4.8289687577176754e-03  4.8032878790361978e-03  4.7249262081804060e-03  4.5947370943125940e-03  4.4141449222485866e-03  4.1851282550620103e-03  3.9101965829805062e-03  3.5923610264675392e-03  3.2350994127393