<?xml version="1.0"?>
<VTKFile type="UnstructuredGrid"  version="0.1"  >
<UnstructuredGrid>
<Piece  NumberOfPoints="961" NumberOfCells="1800">
<Points>
<DataArray  type="Float64"  NumberOfComponents="3"  format="ascii">-2 -2 0  -1.866666666666667 -2 0  -1.733333333333333 -2 0  -1.6 -2 0  -1.466666666666667 -2 0  -1.333333333333333 -2 0  -1.2 -2 0  -1.066666666666667 -2 0  -0.9333333333333333 -2 0  -0.8 -2 0  -0.6666666666666667 -2 0  -0.5333333333333334 -2 0  -0.3999999999999999 -2 0  -0.2666666666666666 -2 0  -0.1333333333333333 -2 0  0 -2 0  0.1333333333333333 -2 0  0.2666666666666666 -2 0  0.3999999999999999 -2 0  0.5333333333333332 -2 0  0.6666666666666665 -2 0  0.7999999999999998 -2 0  0.9333333333333331 -2 0  1.066666666666667 -2 0  1.2 -2 0  1.333333333333333 -2 0  1.466666666666667 -2 0  1.6 -2 0  1.733333333333333 -2 0  1.866666666666667 -2 0  2 -2 0  -2 -1.866666666666667 0  -1.866666666666667 -1.866666666666667 0  -1.733333333333333 -1.866666666666667 0  -1.6 -1.866666666666667 0  -1.466666666666667 -1.866666666666667 0  -1.333333333333333 -1.866666666666667 0  -1.2 -1.866666666666667 0  -1.066666666666667 -1.866666666666667 0  -0.9333333333333333 -1.866666666666667 0  -0.8 -1.866666666666667 0  -0.6666666666666667 -1.866666666666667 0  -0.5333333333333334 -1.866666666666667 0  -0.3999999999999999 -1.866666666666667 0  -0.2666666666666666 -1.866666666666667 0  -0.1333333333333333 -1.866666666666667 0  0 -1.866666666666667 0  0.1333333333333333 -1.866666666666667 0  0.2666666666666666 -1.866666666666667 0  0.3999999999999999 -1.866666666666667 0  0.5333333333333332 -1.866666666666667 0  0.6666666666666665 -1.866666666666667 0  0.7999999999999998 -1.866666666666667 0  0.9333333333333331 -1.866666666666667 0  1.066666666666667 -1.866666666666667 0  1.2 -1.866666666666667 0  1.333333333333333 -1.866666666666667 0  1.466666666666667 -1.866666666666667 0  1.6 -1.866666666666667 0  1.733333333333333 -1.866666666666667 0  1.866666666666667 -1.866666666666667 0  2 -1.866666666666667 0  -2 -1.733333333333333 0  -1.866666666666667 -1.733333333333333 0  -1.733333333333333 -1.733333333333333 0  -1.6 -1.733333333333333 0  -1.466666666666667 -1.733333333333333 0  -1.333333333333333 -1.733333333333333 0  -1.2 -1.733333333333333 0  -1.066666666666667 -1.733333333333333 0  -0.9333333333333333 -1.733333333333333 0  -0.8 -1.733333333333333 0  -0.6666666666666667 -1.733333333333333 0  -0.5333333333333334 -1.733333333333333 0  -0.3999999999999999 -1.733333333333333 0  -0.2666666666666666 -1.733333333333333 0  -0.1333333333333333 -1.733333333333333 0  0 -1.733333333333333 0  0.1333333333333333 -1.733333333333333 0  0.2666666666666666 -1.733333333333333 0  0.3999999999999999 -1.733333333333333 0  0.5333333333333332 -1.733333333333333 0  0.6666666666666665 -1.733333333333333 0  0.7999999999999998 -1.733333333333333 0  0.9333333333333331 -1.733333333333333 0  1.066666666666667 -1.733333333333333 0  1.2 -1.733333333333333 0  1.333333333333333 -1.733333333333333 0  1.466666666666667 -1.733333333333333 0  1.6 -1.733333333333333 0  1.733333333333333 -1.733333333333333 0  1.866666666666667 -1.733333333333333 0  2 -1.733333333333333 0  -2 -1.6 0  -1.866666666666667 -1.6 0  -1.733333333333333 -1.6 0  -1.6 -1.6 0  -1.466666666666667 -1.6 0  -1.333333333333333 -1.6 0  -1.2 -1.6 0  -1.066666666666667 -1.6 0  -0.9333333333333333 -1.6 0  -0.8 -1.6 0  -0.6666666666666667 -1.6 0  -0.5333333333333334 -1.6 0  -0.3999999999999999 -1.6 0  -0.2666666666666666 -1.6 0  -0.1333333333333333 -1.6 0  0 -1.6 0  0.1333333333333333 -1.6 0  0.2666666666666666 -1.6 0  0.3999999999999999 -1.6 0  0.5333333333333332 -1.6 0  0.6666666666666665 -1.6 0  0.7999999999999998 -1.6 0  0.9333333333333331 -1.6 0  1.066666666666667 -1.6 0  1.2 -1.6 0  1.333333333333333 -1.6 0  1.466666666666667 -1.6 0  1.6 -1.6 0  1.733333333333333 -1.6 0  1.866666666666667 -1.6 0  2 -1.6 0  -2 -1.466666666666667 0  -1.866666666666667 -1.466666666666667 0  -1.733333333333333 -1.466666666666667 0  -1.6 -1.466666666666667 0  -1.466666666666667 -1.466666666666667 0  -1.333333333333333 -1.466666666666667 0  -1.2 -1.466666666666667 0  -1.066666666666667 -1.466666666666667 0  -0.9333333333333333 -1.466666666666667 0  -0.8 -1.466666666666667 0  -0.6666666666666667 -1.466666666666667 0  -0.5333333333333334 -1.466666666666667 0  -0.3999999999999999 -1.466666666666667 0  -0.2666666666666666 -1.466666666666667 0  -0.1333333333333333 -1.466666666666667 0  0 -1.466666666666667 0  0.1333333333333333 -1.466666666666667 0  0.2666666666666666 -1.466666666666667 0  0.3999999999999999 -1.466666666666667 0  0.5333333333333332 -1.466666666666667 0  0.6666666666666665 -1.466666666666667 0  0.7999999999999998 -1.466666666666667 0  0.9333333333333331 -1.466666666666667 0  1.066666666666667 -1.466666666666667 0  1.2 -1.466666666666667 0  1.333333333333333 -1.466666666666667 0  1.466666666666667 -1.466666666666667 0  1.6 -1.466666666666667 0  1.733333333333333 -1.466666666666667 0  1.866666666666667 -1.466666666666667 0  2 -1.466666666666667 0  -2 -1.333333333333333 0  -1.866666666666667 -1.333333333333333 0  -1.733333333333333 -1.333333333333333 0  -1.6 -1.333333333333333 0  -1.466666666666667 -1.333333333333333 0  -1.333333333333333 -1.333333333333333 0  -1.2 -1.333333333333333 0  -1.066666666666667 -1.333333333333333 0  -0.9333333333333333 -1.333333333333333 0  -0.8 -1.333333333333333 0  -0.6666666666666667 -1.333333333333333 0  -0.5333333333333334 -1.333333333333333 0  -0.3999999999999999 -1.333333333333333 0  -0.2666666666666666 -1.333333333333333 0  -0.1333333333333333 -1.333333333333333 0  0 -1.333333333333333 0  0.1333333333333333 -1.333333333333333 0  0.2666666666666666 -1.333333333333333 0  0.3999999999999999 -1.333333333333333 0  0.5333333333333332 -1.333333333333333 0  0.6666666666666665 -1.333333333333333 0  0.7999999999999998 -1.333333333333333 0  0.9333333333333331 -1.333333333333333 0  1.066666666666667 -1.333333333333333 0  1.2 -1.333333333333333 0  1.333333333333333 -1.333333333333333 0  1.466666666666667 -1.333333333333333 0  1.6 -1.333333333333333 0  1.733333333333333 -1.333333333333333 0  1.866666666666667 -1.333333333333333 0  2 -1.333333333333333 0  -2 -1.2 0  -1.866666666666667 -1.2 0  -1.733333333333333 -1.2 0  -1.6 -1.2 0  -1.466666666666667 -1.2 0  -1.333333333333333 -1.2 0  -1.2 -1.2 0  -1.066666666666667 -1.2 0  -0.9333333333333333 -1.2 0  -0.8 -1.2 0  -0.6666666666666667 -1.2 0  -0.5333333333333334 -1.2 0  -0.3999999999999999 -1.2 0  -0.2666666666666666 -1.2 0  -0.1333333333333333 -1.2 0  0 -1.2 0  0.1333333333333333 -1.2 0  0.2666666666666666 -1.2 0  0.3999999999999999 -1.2 0  0.5333333333333332 -1.2 0  0.6666666666666665 -1.2 0  0.7999999999999998 -1.2 0  0.9333333333333331 -1.2 0  1.066666666666667 -1.2 0  1.2 -1.2 0  1.333333333333333 -1.2 0  1.466666666666667 -1.2 0  1.6 -1.2 0  1.733333333333333 -1.2 0  1.866666666666667 -1.2 0  2 -1.2 0  -2 -1.066666666666667 0  -1.866666666666667 -1.066666666666667 0  -1.733333333333333 -1.066666666666667 0  -1.6 -1.066666666666667 0  -1.466666666666667 -1.066666666666667 0  -1.333333333333333 -1.066666666666667 0  -1.2 -1.066666666666667 0  -1.066666666666667 -1.066666666666667 0  -0.9333333333333333 -1.066666666666667 0  -0.8 -1.066666666666667 0  -0.6666666666666667 -1.066666666666667 0  -0.5333333333333334 -1.066666666666667 0  -0.3999999999999999 -1.066666666666667 0  -0.2666666666666666 -1.066666666666667 0  -0.1333333333333333 -1.066666666666667 0  0 -1.066666666666667 0  0.1333333333333333 -1.066666666666667 0  0.2666666666666666 -1.066666666666667 0  0.3999999999999999 -1.066666666666667 0  0.5333333333333332 -1.066666666666667 0  0.6666666666666665 -1.066666666666667 0  0.7999999999999998 -1.066666666666667 0  0.9333333333333331 -1.066666666666667 0  1.066666666666667 -1.066666666666667 0  1.2 -1.066666666666667 0  1.333333333333333 -1.066666666666667 0  1.466666666666667 -1.066666666666667 0  1.6 -1.066666666666667 0  1.733333333333333 -1.066666666666667 0  1.866666666666667 -1.066666666666667 0  2 -1.066666666666667 0  -2 -0.9333333333333333 0  -1.866666666666667 -0.9333333333333333 0  -1.733333333333333 -0.9333333333333333 0  -1.6 -0.9333333333333333 0  -1.466666666666667 -0.9333333333333333 0  -1.333333333333333 -0.9333333333333333 0  -1.2 -0.9333333333333333 0  -1.066666666666667 -0.9333333333333333 0  -0.9333333333333333 -0.9333333333333333 0  -0.8 -0.9333333333333333 0  -0.6666666666666667 -0.9333333333333333 0  -0.5333333333333334 -0.9333333333333333 0  -0.3999999999999999 -0.9333333333333333 0  -0.2666666666666666 -0.9333333333333333 0  -0.1333333333333333 -0.9333333333333333 0  0 -0.9333333333333333 0  0.1333333333333333 -0.9333333333333333 0  0.2666666666666666 -0.9333333333333333 0  0.3999999999999999 -0.9333333333333333 0  0.5333333333333332 -0.9333333333333333 0  0.6666666666666665 -0.9333333333333333 0  0.7999999999999998 -0.9333333333333333 0  0.9333333333333331 -0.9333333333333333 0  1.066666666666667 -0.9333333333333333 0  1.2 -0.9333333333333333 0  1.333333333333333 -0.9333333333333333 0  1.466666666666667 -0.9333333333333333 0  1.6 -0.9333333333333333 0  1.733333333333333 -0.9333333333333333 0  1.866666666666667 -0.9333333333333333 0  2 -0.9333333333333333 0  -2 -0.8 0  -1.866666666666667 -0.8 0  -1.733333333333333 -0.8 0  -1.6 -0.8 0  -1.466666666666667 -0.8 0  -1.333333333333333 -0.8 0  -1.2 -0.8 0  -1.066666666666667 -0.8 0  -0.9333333333333333 -0.8 0  -0.8 -0.8 0  -0.6666666666666667 -0.8 0  -0.5333333333333334 -0.8 0  -0.3999999999999999 -0.8 0  -0.2666666666666666 -0.8 0  -0.1333333333333333 -0.8 0  0 -0.8 0  0.1333333333333333 -0.8 0  0.2666666666666666 -0.8 0  0.3999999999999999 -0.8 0  0.5333333333333332 -0.8 0  0.6666666666666665 -0.8 0  0.7999999999999998 -0.8 0  0.9333333333333331 -0.8 0  1.066666666666667 -0.8 0  1.2 -0.8 0  1.333333333333333 -0.8 0  1.466666666666667 -0.8 0  1.6 -0.8 0  1.733333333333333 -0.8 0  1.866666666666667 -0.8 0  2 -0.8 0  -2 -0.6666666666666667 0  -1.866666666666667 -0.
[...]
<PointData  Scalars="f_1363"> 
<DataArray  type="Float64"  Name="f_1363"  format="ascii">0.0000000000000000e+00  0.0000000000000000e+00  0.0000000000000000e+00  0.0000000000000000e+00  0.0000000000000000e+00  0.0000000000000000e+00  0.0000000000000000e+00  0.0000000000000000e+00  0.0000000000000000e+00  0.0000000000000000e+00  0.0000000000000000e+00  0.0000000000000000e+00  0.0000000000000000e+00  0.0000000000000000e+00  0.0000000000000000e+00  0.0000000000000000e+00  0.0000000000000000e+00  0.0000000000000000e+00  0.0000000000000000e+00  0.0000000000000000e+00  0.0000000000000000e+00  0.0000000000000000e+00  0.0000000000000000e+00  0.0000000000000000e+00  0.0000000000000000e+00  0.0000000000000000e+00  0.0000000000000000e+00  0.0000000000000000e+00  0.0000000000000000e+00  0.0000000000000000e+00  0.0000000000000000e+00  0.0000000000000000e+00  4.7012533959884422e-05  9.3425219647606399e-05  1.3876395052651573e-04  1.8254844668788369e-04  2.2430822604701080e-04  2.6359161376668920e-04  2.9997227479913600e-04  3.3305462314969471e-04  3.6247854109412595e-04  3.8792354619203250e-04  4.0911244120524660e-04  4.2581444459594692e-04  4.3784778629174813e-04  4.4508175053532313e-04  4.4743814938553143e-04  4.4489221449996332e-04  4.3747290015315455e-04  4.2526259651612017e-04  4.0839625878992243e-04  3.8705996476483777e-04  3.6148892085237746e-04  3.3196494496132433e-04  2.9881346465342819e-04  2.6240008296183226e-04  2.2312678739327651e-04  1.8142792399252278e-04  1.3776616809748149e-04  9.2629021883440532e-05  4.6527281247549172e-05  0.0000000000000000e+00  0.0000000000000000e+00  9.3425219647606494e-05  1.8571074126596442e-04  2.7587980516826998e-04  3.6296638340829203e-04  4.4603075452869374e-04  5.2417285166953800e-04  5.9654383578297489e-04  6.6235636506046538e-04  7.2089379399239550e-04  7.7151838257925832e-04  8.1367852004970000e-04  8.4691493413653184e-04  8.7086584555555761e-04  8.8527102713228576e-04  8.8997473277303818e-04  8.8492747055326148e-04  8.7018660522979142e-04  8.4591578773253321e-04  8.1238322225308222e-04  7.6995879525657712e-04  7.1911010516978306e-04  6.6039744706373050e-04  5.9446782440868433e-04  5.2204808225445932e-04  4.4393728792318696e-04  3.6099853683464419e-04  2.7415045295639637e-04  1.8435881914466841e-04  9.2629021883440559e-05  0.0000000000000000e+00  0.0000000000000000e+00  1.3876395052651576e-04  2.7587980516826993e-04  4.0987412531600379e-04  5.3930065976716998e-04  6.6275761854134242e-04  7.7890460573467311e-04  8.8647850732486420e-04  9.8430816286472923e-04  1.0713277632592149e-03  1.1465889189820292e-03  1.2092713293339477e-03  1.2586919759383461e-03  1.2943127648038736e-03  1.3157465490130111e-03  1.3227614763391250e-03  1.3152836213369756e-03  1.2933978786767043e-03  1.2573471130287207e-03  1.2075295802224976e-03  1.1444946544494296e-03  1.0689369169047439e-03  9.8168868266337080e-04  8.8371106532619966e-04  7.7608370415521146e-04  6.5999330774414765e-04  5.3672120339816852e-04  4.0763012004390925e-04  2.7415045295639643e-04  1.3776616809748151e-04  0.0000000000000000e+00  0.0000000000000000e+00  1.8254844668788372e-04  3.6296638340829220e-04  5.3930065976717009e-04  7.0963914957540054e-04  8.7213170159229799e-04  1.0250109867240887e-03  1.1666125220998799e-03  1.2953934812911848e-03  1.4099500532778438e-03  1.5090331751814094e-03  1.5915624907051752e-03  1.6566384027808521e-03  1.7035521045590616e-03  1.7317934904587371e-03  1.7410568689676792e-03  1.7312444209577654e-03  1.7024673709611193e-03  1.6550448636768699e-03  1.5895005635370503e-03  1.5065570211315825e-03  1.4071278764429505e-03  1.2923079950264065e-03  1.1633616593964956e-03  1.0217089637276403e-03  8.6891058464382508e-04  7.0665112117841646e-04  5.3672120339816874e-04  3.6099853683464435e-04  1.8142792399252283e-04  0.0000000000000000e+00  0.0000000000000000e+00  2.2430822604701088e-04  4.4603075452869407e-04  6.6275761854134242e-04  8.7213170159229777e-04  1.0718741103987127e-03  1.2598091994479252e-03  1.4338886832539397e-03  1.5922144104180906e-03  1.7330594785719780e-03  1.8548874351509489e-03  1.9563693508734149e-03  2.0363985835913007e-03  2.0941030771419672e-03  2.1288550664242223e-03  2.1402780874891576e-03  2.1282512203118290e-03  2.0929105219685555e-03  2.0346476388754349e-03  1.9541056181679377e-03  1.8521719698236800e-03  1.7299690623481256e-03  1.5888419653156535e-03  1.4303438812073930e-03  1.2562193358470861e-03  1.0683853194154839e-03  8.6891058464382530e-04  6.5999330774414776e-04  4.4393728792318718e-04  2.2312678739327662e-04  0.0000000000000000e+00  0.0000000000000000e+00  2.6359161376668952e-04  5.2417285166953865e-04  7.7890460573467376e-04  1.0250109867240896e-03  1.2598091994479256e-03  1.4807387618810577e-03  1.6853896038288823e-03  1.8715286270390209e-03  2.0371243685882914e-03  2.1803694620232054e-03  2.2997006339527774e-03  2.3938160108526439e-03  2.4616895451083955e-03  2.5025824030039823e-03  2.5160511915699318e-03  2.5019529363463217e-03  2.4604467581613256e-03  2.3919922337166197e-03  2.2973444617173364e-03  2.1775458930224588e-03  2.0339150192941664e-03  1.8680320492708599e-03  1.6817217342785296e-03  1.4770335337786380e-03  1.2562193358470863e-03  1.0217089637276405e-03  7.7608370415521157e-04  5.2204808225445943e-04  2.6240008296183232e-04  0.0000000000000000e+00  0.0000000000000000e+00  2.9997227479913648e-04  5.9654383578297608e-04  8.8647850732486604e-04  1.1666125220998814e-03  1.4338886832539401e-03  1.6853896038288823e-03  1.9183695952300361e-03  2.1302847899937294e-03  2.3188211187086518e-03  2.4819198013444218e-03  2.6178000535512949e-03  2.7249787476637576e-03  2.8022868067754626e-03  2.8488821491537706e-03  2.8642590399418910e-03  2.8482537477207636e-03  2.8010464449574257e-03  2.7231593333443740e-03  2.6154510170977511e-03  2.4791071889035468e-03  2.3156277337743748e-03  2.1268103949083975e-03  1.9147311818967865e-03  1.6817217342785283e-03  1.4303438812073921e-03  1.1633616593964950e-03  8.8371106532619901e-04  5.9446782440868400e-04  2.9881346465342813e-04  0.0000000000000000e+00  0.0000000000000000e+00  3.3305462314969526e-04  6.6235636506046679e-04  9.8430816286473118e-04  1.2953934812911870e-03  1.5922144104180921e-03  1.8715286270390209e-03  2.1302847899937302e-03  2.3656559460974160e-03  2.5750705471741550e-03  2.7562407118887754e-03  2.9071874036719677e-03  3.0262622358700991e-03  3.1121656566174419e-03  3.1639613086817012e-03  3.1810864036252249e-03  3.1633579949131240e-03  3.1109750808055885e-03  3.0245165145883312e-03  2.9049347464136337e-03  2.7535454671585454e-03  2.5720132696055945e-03  2.3623334852044728e-03  2.1268103949083966e-03  1.8680320492708579e-03  1.5888419653156513e-03  1.2923079950264054e-03  9.8168868266336972e-04  6.6039744706372974e-04  3.3196494496132395e-04  0.0000000000000000e+00  0.0000000000000000e+00  3.6247854109412633e-04  7.2089379399239669e-04  1.0713277632592166e-03  1.4099500532778458e-03  1.7330594785719790e-03  2.0371243685882922e-03  2.3188211187086527e-03  2.5750705471741550e-03  2.8030716385864327e-03  3.0003322848673776e-03  3.1646966708490571e-03  3.2943689920377143e-03  3.3879332354451726e-03  3.4443688000924512e-03  3.4630617814415195e-03  3.4438117932043635e-03  3.3868342502672497e-03  3.2927580873351649e-03  3.1626189387620267e-03  2.9978478552473865e-03  2.8002556819714248e-03  2.5720132696055958e-03  2.3156277337743753e-03  2.0339150192941642e-03  1.7299690623481245e-03  1.4071278764429499e-03  1.0689369169047435e-03  7.1911010516978284e-04  3.6148892085237724e-04  0.0000000000000000e+00  0.0000000000000000e+00  3.8792354619203310e-04  7.7151838257925951e-04  1.1465889189820309e-03  1.5090331751814118e-03  1.8548874351509517e-03  2.1803694620232085e-03  2.4819198013444248e-03  2.7562407118887767e-03  3.0003322848673785e-03  3.2115253421825724e-03  3.3875107406178321e-03  3.5263647500223577e-03  3.6265702185666470e-03  3.6870332862311921e-03  3.7070954582248444e-03  3.6865409024441445e-03  3.6255988888026693e-03  3.5249413426671544e-03  3.3856755390815258e-03  3.2093320182561519e-03  2.9978478552473882e-03  2.7535454671585480e-03  2.4791071889035468e-03  2.1775458930224575e-03  1.8521719698236794e-03  1.5065570211315823e-03  1.1444946544494294e-03  7.6995879525657723e-04  3.8705996476483777e-04  0.0000000000000000e+00  0.0000000000000000e+00  4.0911244120524725e-04  8.1367852004970119e-04  1.2092713293339497e-03  1.5915624907051782e-03  1.9563693508734183e-03  2.2997006339527822e-03  2.6178000535513005e-03  2.9071874036719725e-03  3.1646966708490589e-03  3.3875107406178312e-03  3.5731923083753038e-03  3.7197106468813677e-03  3.8254639291506977e-03  3.8892968555088673e-03  3.9105133864335267e-03  3.8888844378118267e-03  3.8246504517544257e-03  3.7185188134303518e-03  3.5716561418179110e-03  3.3856755390815263e-03  3.1626189387620319e-03  2.9049347464136384e-03  2.6154510170977520e-03  2.2973444617173369e-03  1.9541056181679372e-03  1.5895005635370503e-03  1.2075295802224985e-03  8.1238322225308276e-04  4.0839625878992254e-04  0.0000000000000000e+00  0.0000000000000000e+00  4.2581444459594757e-04  8.4691493413653347e-04  1.2586919759383481e-03  1.6566384027808547e-03  2.0363985835913046e-03  2.3938160108526478e-03  2.7249787476637611e-03  3.0262622358701026e-03  3.2943689920377148e-03  3.5263647500223556e-03  3.7197106468813647e-03  3.8722910921428519e-03  3.9824370082251048e-03  4.0489441813578598e-03  4.0710865169897850e-03  4.0486240506732579e-03  3.9818056240867048e-03  3.8713661954567664e-03  3.7185188134303501e-03  3.5249413426671548e-03  3.2927580873351688e-03  3.0245165145883347e-03  2.7231593333443740e-03  2.3919922337166193e-03  2.0346476388754344e-03  1.6550448636768690e-03  1.2573471130287207e-03  8.4591578773253332e-04  4.2526259651612033e-04  0.0000000000000000e+00  0.0000000000000000e+00  4.3784778629174878e-04  8.7086584555555891e-04  1.2943127648038762e-03  1.7035521045590649e-03  2.0941030771419703e-03  2.4616895451083994e-03  2.8022868067754682e-03  3.1121656566174462e-03  3.3879332354451739e-03  3.6265702185666457e-03  3.8254639291506977e-03  3.9824370082251074e-03  4.0957713215085860e-03  4.1642268359447839e-03  4.1870552546954716e-03  4.1640082577560529e-03  4.0953402555500883e-03  3.9818056240867004e-03  3.8246504517544218e-03  3.6255988888026659e-03  3.3868342502672492e-03  3.1109750808055885e-03  2.8010464449574235e-03  2.4604467581613209e-03  2.0929105219685516e-03  1.7024673709611165e-03  1.2933978786767032e-03  8.7018660522979077e-04  4.3747290015315427e-04  0.0000000000000000e+00  0.0000000000000000e+00  4.4508175053532405e-04  8.8527102713228717e-04  1.3157465490130137e-03  1.7317934904587412e-03  2.1288550664242270e-03  2.5025824030039884e-03  2.8488821491537762e-03  3.1639613086817064e-03  3.4443688000924543e-03  3.6870332862311947e-03  3.8892968555088712e-03  4.0489441813578633e-03  4.1642268359447857e-03  4.2338824874705062e-03  4.2571487669791084e-03  4.2337716497922503e-03  4.1640082577560477e-03  4.0486240506732501e-03  3.8888844378118181e-03  3.6865409024441371e-03  3.4438117932043578e-03  3.1633579949131197e-03  2.8482537477207566e-03  2.5019529363463143e-03  2.1282512203118233e-03  1.7312444209577613e-03  1.3152836213369732e-03  8.8492747055325986e-04  4.4489221449996251e-04  0.0000000000000000e+00  0.0000000000000000e+00  4.4743814938553241e-04  8.8997473277304003e-04  1.3227614763391283e-03  1.7410568689676836e-03  2.1402780874891637e-03  2.5160511915699379e-03  2.8642590399418971e-03  3.1810864036252314e-03  3.4630617814415256e-03  3.7070954582248497e-03  3.9105133864335319e-03  4.0710865169897893e-03  4.1870552546954742e-03  4.2571487669791101e-03  4.2805989314363664e-03  4.2571487669791049e-03  4.1870552546954629e-03  4.0710865169897720e-03  3.9105133864335119e-03  3.7070954582248327e-03  3.4630617814415112e-03  3.1810864036252167e-03  2.8642590399418802e-03  2.5160511915699219e-03  2.1402780874891503e-03  1.7410568689676736e-03  1.3227614763391205e-03  8.8997473277303515e-04  4.4743814938553008e-04  0.0000000000000000e+00  0.0000000000000000e+00  4.4489221449996462e-04  8.8492747055326430e-04  1.3152836213369797e-03  1.7312444209577700e-03  2.1282512203118346e-03  2.5019529363463277e-03  2.8482537477207697e-03  3.1633579949131314e-03  3.4438117932043722e-03  3.6865409024441523e-03  3.8888844378118354e-03  4.0486240506732640e-03  4.1640082577560564e-03  4.2337716497922546e-03  4.2571487669791075e-03  4.2338824874705010e-03  4.1642268359447744e-03  4.0489441813578450e-03  3.8892968555088504e-03  3.6870332862311778e-03  3.4443688000924400e-03  3.1639613086816907e-03  2.8488821491537589e-03  2.5025824030039715e-03  2.1288550664242119e-03  1.7317934904587302e-03  1.3157465490130059e-03  8.8527102713228207e-04  4.4508175053532145e-04  0.0000000000000000e+00  0.0000000000000000e+00  4.3747290015315579e-04  8.7018660522979435e-04  1.2933978786767084e-03  1.7024673709611228e-03  2.0929105219685594e-03  2.4604467581613313e-03  2.8010464449574331e-03  3.1109750808055972e-03  3.3868342502672575e-03  3.6255988888026780e-03  3.8246504517544322e-03  3.9818056240867126e-03  4.0953402555500961e-03  4.1640082577560546e-03  4.1870552546954681e-03  4.1642268359447752e-03  4.0957713215085739e-03  3.9824370082250900e-03  3.8254639291506786e-03  3.6265702185666283e-03  3.3879332354451578e-03  3.1121656566174302e-03  2.8022868067754505e-03  2.4616895451083829e-03  2.0941030771419564e-03  1.7035521045590538e-03  1.2943127648038677e-03  8.7086584555555316e-04  4.3784778629174607e-04  0.0000000000000000e+00  0.0000000000000000e+00  4.2526259651612158e-04  8.4591578773253614e-04  1.2573471130287244e-03  1.6550448636768740e-03  2.0346476388754405e-03  2.3919922337166263e-03  2.7231593333443800e-03  3.0245165145883395e-03  3.2927580873351740e-03  3.5249413426671631e-03  3.7185188134303622e-03  3.8713661954567768e-03  3.9818056240867126e-03  4.0486240506732588e-03  4.0710865169897789e-03  4.0489441813578511e-03  3.9824370082250935e-03  3.8722910921428337e-03  3.7197106468813447e-03  3.5263647500223361e-03  3.2943689920376966e-03  3.0262622358700848e-03  2.7249787476637428e-03  2.3938160108526309e-03  2.0363985835912899e-03  1.6566384027808434e-03  1.2586919759383390e-03  8.4691493413652696e-04  4.2581444459594432e-04  0.0000000000000000e+00  0.0000000000000000e+00  4.0839625878992362e-04  8.1238322225308482e-04  1.2075295802225011e-03  1.5895005635370542e-03  1.9541056181679424e-03  2.2973444617173412e-03  2.6154510170977555e-03  2.9049347464136406e-03  3.1626189387620350e-03  3.3856755390815349e-03  3.5716561418179245e-03  3.7185188134303618e-03  3.8246504517544340e-03  3.8888844378118285e-03  3.9105133864335206e-03  3.8892968555088582e-03  3.8254639291506842e-03  3.7197106468813486e-03  3.5731923083752847e-03  3.3875107406178117e-03  3.1646966708490393e-03  2.9071874036719551e-03  2.6178000535512802e-03  2.2997006339527653e-03  1.9563693508734045e-03  1.5915624907051670e-03  1.2092713293339399e-03  8.1367852004969436e-04  4.0911244120524394e-04  0.0000000000000000e+00  0.0000000000000000e+00  3.8705996476483880e-04  7.6995879525657940e-04  1.1444946544494324e-03  1.5065570211315862e-03  1.8521719698236846e-03  2.1775458930224628e-03  2.4791071889035511e-03  2.7535454671585519e-03  2.9978478552473947e-03  3.2093320182561601e-03  3.3856755390815367e-03  3.5249413426671639e-03  3.6255988888026763e-03  3.6865409024441453e-03  3.7070954582248405e-03  3.6870332862311843e-03  3.6265702185666339e-03  3.5263647500223400e-03  3.3875107406178143e-03  3.2115253421825564e-03  3.0003322848673629e-03  2.7562407118887620e-03  2.4819198013444101e-03  2.1803694620231937e-03  1.8548874351509384e-03  1.5090331751814014e-03  1.1465889189820225e-03  7.7151838257925366e-04  3.8792354619203033e-04  0.0000000000000000e+00  0.0000000000000000e+00  3.6148892085237838e-04  7.1911010516978479e-04  1.0689369169047465e-03  1.4071278764429534e-03  1.7299690623481291e-03  2.0339150192941698e-03  2.3156277337743796e-03  2.5720132696055984e-03  2.8002556819714313e-03  2.9978478552473956e-03  3.1626189387620384e-03  3.2927580873351753e-03  3.3868342502672553e-03  3.4438117932043635e-03  3.4630617814415164e-03  3.4443688000924443e-03  3.3879332354451643e-03  3.2943689920377022e-03  3.1646966708490437e-03  3.0003322848673646e-03  2.8030716385864201e-03  2.5750705471741437e-03  2.3188211187086410e-03  2.0371243685882810e-03  1.7330594785719682e-03  1.4099500532778362e-03  1.0713277632592086e-03  7.2089379399239149e-04  3.6247854109412400e-04  0.0000000000000000e+00  0.0000000000000000e+00  3.3196494496132487e-04  6.6039744706373159e-04  9.8168868266337232e-04  1.2923079950264086e-03  1.5888419653156550e-03  1.8680320492708632e-03  2.1268103949084014e-03  2.3623334852044767e-03  2.5720132696056006e-03  2.7535454671585541e-03  2.9049347464136441e-03  3.0245165145883404e-03  3.1109750808055955e-03  3.1633579949131266e-03  3.1810864036252249e-03  3.1639613086816972e-03  3.1121656566174363e-03  3.0262622358700909e-03  2.9071874036719603e-03  2.7562407118887663e-03  2.5750705471741459e-03  2.3656559460974082e-03  2.1302847899937203e-03  1.8715286270390105e-03  1.5922144104180815e-03  1.2953934812911785e-03  9.8430816286472467e-04  6.6235636506046245e-04  3.3305462314969309e-04  0.0000000000000000e+00  0.0000000000000000e+00  2.9881346465342868e-04  5.9446782440868520e-04  8.8371106532620074e-04  1.1633616593964972e-03  1.4303438812073943e-03  1.6817217342785318e-03  1.9147311818967898e-03  2.1268103949083996e-03  2.3156277337743779e-03  2.4791071889035516e-03  2.6154510170977563e-03  2.7231593333443787e-03  2.8010464449574300e-03  2.8482537477207636e-03  2.8642590399418897e-03  2.8488821491537662e-03  2.8022868067754570e-03  2.7249787476637485e-03  2.6178000535512862e-03  2.4819198013444127e-03  2.3188211187086419e-03  2.1302847899937211e-03  1.9183695952300264e-03  1.6853896038288721e-03  1.4338886832539306e-03  1.1666125220998733e-03  8.8647850732485975e-04  5.9654383578297185e-04  2.9997227479913431e-04  0.0000000000000000e+00  0.0000000000000000e+00  2.6240008296183259e-04  5.2204808225445986e-04  7.7608370415521255e-04  1.0217089637276416e-03  1.2562193358470876e-03  1.4770335337786396e-03  1.6817217342785307e-03  1.8680320492708608e-03  2.0339150192941677e-03  2.1775458930224610e-03  2.2973444617173399e-03  2.3919922337166232e-03  2.4604467581613274e-03  2.5019529363463208e-03  2.5160511915699288e-03  2.5025824030039780e-03  2.4616895451083894e-03  2.3938160108526356e-03  2.2997006339527692e-03  2.1803694620231963e-03  2.0371243685882831e-03  1.8715286270390115e-03  1.6853896038288730e-03  1.4807387618810486e-03  1.2598091994479174e-03  1.0250109867240822e-03  7.7890460573466845e-04  5.2417285166953486e-04  2.6359161376668752e-04  0.0000000000000000e+00  0.0000000000000000e+00  2.2312678739327681e-04  4.4393728792318772e-04  6.5999330774414852e-04  8.6891058464382649e-04  1.0683853194154850e-03  1.2562193358470876e-03  1.4303438812073932e-03  1.5888419653156528e-03  1.7299690623481271e-03  1.8521719698236820e-03  1.9541056181679411e-03  2.0346476388754383e-03  2.0929105219685564e-03  2.1282512203118281e-03  2.1402780874891559e-03  2.1288550664242175e-03  2.0941030771419599e-03  2.0363985835912938e-03  1.9563693508734071e-03  1.8548874351509408e-03  1.7330594785719686e-03  1.5922144104180836e-03  1.4338886832539316e-03  1.2598091994479180e-03  1.0718741103987060e-03  8.7213170159229224e-04  6.6275761854133841e-04  4.4603075452869108e-04  2.2430822604700909e-04  0.0000000000000000e+00  0.0000000000000000e+00  1.8142792399252302e-04  3.6099853683464479e-04  5.3672120339816939e-04  7.0665112117841765e-04  8.6891058464382692e-04  1.0217089637276416e-03  1.1633616593964965e-03  1.2923079950264065e-03  1.4071278764429512e-03  1.5065570211315845e-03  1.5895005635370527e-03  1.6550448636768720e-03  1.7024673709611197e-03  1.7312444209577648e-03  1.7410568689676768e-03  1.7317934904587334e-03  1.7035521045590564e-03  1.6566384027808458e-03  1.5915624907051683e-03  1.5090331751814029e-03  1.4099500532778377e-03  1.2953934812911800e-03  1.1666125220998