<?xml version="1.0"?>
<VTKFile type="UnstructuredGrid"  version="0.1"  >
<UnstructuredGrid>
<Piece  NumberOfPoints="961" NumberOfCells="1800">
<Points>
<DataArray  type="Float64"  NumberOfComponents="3"  format="ascii">-2 -2 0  -1.866666666666667 -2 0  -1.733333333333333 -2 0  -1.6 -2 0  -1.466666666666667 -2 0  -1.333333333333333 -2 0  -1.2 -2 0  -1.066666666666667 -2 0  -0.9333333333333333 -2 0  -0.8 -2 0  -0.6666666666666667 -2 0  -0.5333333333333334 -2 0  -0.3999999999999999 -2 0  -0.2666666666666666 -2 0  -0.1333333333333333 -2 0  0 -2 0  0.1333333333333333 -2 0  0.2666666666666666 -2 0  0.3999999999999999 -2 0  0.5333333333333332 -2 0  0.6666666666666665 -2 0  0.7999999999999998 -2 0  0.9333333333333331 -2 0  1.066666666666667 -2 0  1.2 -2 0  1.333333333333333 -2 0  1.466666666666667 -2 0  1.6 -2 0  1.733333333333333 -2 0  1.866666666666667 -2 0  2 -2 0  -2 -1.866666666666667 0  -1.866666666666667 -1.866666666666667 0  -1.733333333333333 -1.866666666666667 0  -1.6 -1.866666666666667 0  -1.466666666666667 -1.866666666666667 0  -1.333333333333333 -1.866666666666667 0  -1.2 -1.866666666666667 0  -1.066666666666667 -1.866666666666667 0  -0.9333333333333333 -1.866666666666667 0  -0.8 -1.866666666666667 0  -0.6666666666666667 -1.866666666666667 0  -0.5333333333333334 -1.866666666666667 0  -0.3999999999999999 -1.866666666666667 0  -0.2666666666666666 -1.866666666666667 0  -0.1333333333333333 -1.866666666666667 0  0 -1.866666666666667 0  0.1333333333333333 -1.866666666666667 0  0.2666666666666666 -1.866666666666667 0  0.3999999999999999 -1.866666666666667 0  0.5333333333333332 -1.866666666666667 0  0.6666666666666665 -1.866666666666667 0  0.7999999999999998 -1.866666666666667 0  0.9333333333333331 -1.866666666666667 0  1.066666666666667 -1.866666666666667 0  1.2 -1.866666666666667 0  1.333333333333333 -1.866666666666667 0  1.466666666666667 -1.866666666666667 0  1.6 -1.866666666666667 0  1.733333333333333 -1.866666666666667 0  1.866666666666667 -1.866666666666667 0  2 -1.866666666666667 0  -2 -1.733333333333333 0  -1.866666666666667 -1.733333333333333 0  -1.733333333333333 -1.733333333333333 0  -1.6 -1.733333333333333 0  -1.466666666666667 -1.733333333333333 0  -1.333333333333333 -1.733333333333333 0  -1.2 -1.733333333333333 0  -1.066666666666667 -1.733333333333333 0  -0.9333333333333333 -1.733333333333333 0  -0.8 -1.733333333333333 0  -0.6666666666666667 -1.733333333333333 0  -0.5333333333333334 -1.733333333333333 0  -0.3999999999999999 -1.733333333333333 0  -0.2666666666666666 -1.733333333333333 0  -0.1333333333333333 -1.733333333333333 0  0 -1.733333333333333 0  0.1333333333333333 -1.733333333333333 0  0.2666666666666666 -1.733333333333333 0  0.3999999999999999 -1.733333333333333 0  0.5333333333333332 -1.733333333333333 0  0.6666666666666665 -1.733333333333333 0  0.7999999999999998 -1.733333333333333 0  0.9333333333333331 -1.733333333333333 0  1.066666666666667 -1.733333333333333 0  1.2 -1.733333333333333 0  1.333333333333333 -1.733333333333333 0  1.466666666666667 -1.733333333333333 0  1.6 -1.733333333333333 0  1.733333333333333 -1.733333333333333 0  1.866666666666667 -1.733333333333333 0  2 -1.733333333333333 0  -2 -1.6 0  -1.866666666666667 -1.6 0  -1.733333333333333 -1.6 0  -1.6 -1.6 0  -1.466666666666667 -1.6 0  -1.333333333333333 -1.6 0  -1.2 -1.6 0  -1.066666666666667 -1.6 0  -0.9333333333333333 -1.6 0  -0.8 -1.6 0  -0.6666666666666667 -1.6 0  -0.5333333333333334 -1.6 0  -0.3999999999999999 -1.6 0  -0.2666666666666666 -1.6 0  -0.1333333333333333 -1.6 0  0 -1.6 0  0.1333333333333333 -1.6 0  0.2666666666666666 -1.6 0  0.3999999999999999 -1.6 0  0.5333333333333332 -1.6 0  0.6666666666666665 -1.6 0  0.7999999999999998 -1.6 0  0.9333333333333331 -1.6 0  1.066666666666667 -1.6 0  1.2 -1.6 0  1.333333333333333 -1.6 0  1.466666666666667 -1.6 0  1.6 -1.6 0  1.733333333333333 -1.6 0  1.866666666666667 -1.6 0  2 -1.6 0  -2 -1.466666666666667 0  -1.866666666666667 -1.466666666666667 0  -1.733333333333333 -1.466666666666667 0  -1.6 -1.466666666666667 0  -1.466666666666667 -1.466666666666667 0  -1.333333333333333 -1.466666666666667 0  -1.2 -1.466666666666667 0  -1.066666666666667 -1.466666666666667 0  -0.9333333333333333 -1.466666666666667 0  -0.8 -1.466666666666667 0  -0.6666666666666667 -1.466666666666667 0  -0.5333333333333334 -1.466666666666667 0  -0.3999999999999999 -1.466666666666667 0  -0.2666666666666666 -1.466666666666667 0  -0.1333333333333333 -1.466666666666667 0  0 -1.466666666666667 0  0.1333333333333333 -1.466666666666667 0  0.2666666666666666 -1.466666666666667 0  0.3999999999999999 -1.466666666666667 0  0.5333333333333332 -1.466666666666667 0  0.6666666666666665 -1.466666666666667 0  0.7999999999999998 -1.466666666666667 0  0.9333333333333331 -1.466666666666667 0  1.066666666666667 -1.466666666666667 0  1.2 -1.466666666666667 0  1.333333333333333 -1.466666666666667 0  1.466666666666667 -1.466666666666667 0  1.6 -1.466666666666667 0  1.733333333333333 -1.466666666666667 0  1.866666666666667 -1.466666666666667 0  2 -1.466666666666667 0  -2 -1.333333333333333 0  -1.866666666666667 -1.333333333333333 0  -1.733333333333333 -1.333333333333333 0  -1.6 -1.333333333333333 0  -1.466666666666667 -1.333333333333333 0  -1.333333333333333 -1.333333333333333 0  -1.2 -1.333333333333333 0  -1.066666666666667 -1.333333333333333 0  -0.9333333333333333 -1.333333333333333 0  -0.8 -1.333333333333333 0  -0.6666666666666667 -1.333333333333333 0  -0.5333333333333334 -1.333333333333333 0  -0.3999999999999999 -1.333333333333333 0  -0.2666666666666666 -1.333333333333333 0  -0.1333333333333333 -1.333333333333333 0  0 -1.333333333333333 0  0.1333333333333333 -1.333333333333333 0  0.2666666666666666 -1.333333333333333 0  0.3999999999999999 -1.333333333333333 0  0.5333333333333332 -1.333333333333333 0  0.6666666666666665 -1.333333333333333 0  0.7999999999999998 -1.333333333333333 0  0.9333333333333331 -1.333333333333333 0  1.066666666666667 -1.333333333333333 0  1.2 -1.333333333333333 0  1.333333333333333 -1.333333333333333 0  1.466666666666667 -1.333333333333333 0  1.6 -1.333333333333333 0  1.733333333333333 -1.333333333333333 0  1.866666666666667 -1.333333333333333 0  2 -1.333333333333333 0  -2 -1.2 0  -1.866666666666667 -1.2 0  -1.733333333333333 -1.2 0  -1.6 -1.2 0  -1.466666666666667 -1.2 0  -1.333333333333333 -1.2 0  -1.2 -1.2 0  -1.066666666666667 -1.2 0  -0.9333333333333333 -1.2 0  -0.8 -1.2 0  -0.6666666666666667 -1.2 0  -0.5333333333333334 -1.2 0  -0.3999999999999999 -1.2 0  -0.2666666666666666 -1.2 0  -0.1333333333333333 -1.2 0  0 -1.2 0  0.1333333333333333 -1.2 0  0.2666666666666666 -1.2 0  0.3999999999999999 -1.2 0  0.5333333333333332 -1.2 0  0.6666666666666665 -1.2 0  0.7999999999999998 -1.2 0  0.9333333333333331 -1.2 0  1.066666666666667 -1.2 0  1.2 -1.2 0  1.333333333333333 -1.2 0  1.466666666666667 -1.2 0  1.6 -1.2 0  1.733333333333333 -1.2 0  1.866666666666667 -1.2 0  2 -1.2 0  -2 -1.066666666666667 0  -1.866666666666667 -1.066666666666667 0  -1.733333333333333 -1.066666666666667 0  -1.6 -1.066666666666667 0  -1.466666666666667 -1.066666666666667 0  -1.333333333333333 -1.066666666666667 0  -1.2 -1.066666666666667 0  -1.066666666666667 -1.066666666666667 0  -0.9333333333333333 -1.066666666666667 0  -0.8 -1.066666666666667 0  -0.6666666666666667 -1.066666666666667 0  -0.5333333333333334 -1.066666666666667 0  -0.3999999999999999 -1.066666666666667 0  -0.2666666666666666 -1.066666666666667 0  -0.1333333333333333 -1.066666666666667 0  0 -1.066666666666667 0  0.1333333333333333 -1.066666666666667 0  0.2666666666666666 -1.066666666666667 0  0.3999999999999999 -1.066666666666667 0  0.5333333333333332 -1.066666666666667 0  0.6666666666666665 -1.066666666666667 0  0.7999999999999998 -1.066666666666667 0  0.9333333333333331 -1.066666666666667 0  1.066666666666667 -1.066666666666667 0  1.2 -1.066666666666667 0  1.333333333333333 -1.066666666666667 0  1.466666666666667 -1.066666666666667 0  1.6 -1.066666666666667 0  1.733333333333333 -1.066666666666667 0  1.866666666666667 -1.066666666666667 0  2 -1.066666666666667 0  -2 -0.9333333333333333 0  -1.866666666666667 -0.9333333333333333 0  -1.733333333333333 -0.9333333333333333 0  -1.6 -0.9333333333333333 0  -1.466666666666667 -0.9333333333333333 0  -1.333333333333333 -0.9333333333333333 0  -1.2 -0.9333333333333333 0  -1.066666666666667 -0.9333333333333333 0  -0.9333333333333333 -0.9333333333333333 0  -0.8 -0.9333333333333333 0  -0.6666666666666667 -0.9333333333333333 0  -0.5333333333333334 -0.9333333333333333 0  -0.3999999999999999 -0.9333333333333333 0  -0.2666666666666666 -0.9333333333333333 0  -0.1333333333333333 -0.9333333333333333 0  0 -0.9333333333333333 0  0.1333333333333333 -0.9333333333333333 0  0.2666666666666666 -0.9333333333333333 0  0.3999999999999999 -0.9333333333333333 0  0.5333333333333332 -0.9333333333333333 0  0.6666666666666665 -0.9333333333333333 0  0.7999999999999998 -0.9333333333333333 0  0.9333333333333331 -0.9333333333333333 0  1.066666666666667 -0.9333333333333333 0  1.2 -0.9333333333333333 0  1.333333333333333 -0.9333333333333333 0  1.466666666666667 -0.9333333333333333 0  1.6 -0.9333333333333333 0  1.733333333333333 -0.9333333333333333 0  1.866666666666667 -0.9333333333333333 0  2 -0.9333333333333333 0  -2 -0.8 0  -1.866666666666667 -0.8 0  -1.733333333333333 -0.8 0  -1.6 -0.8 0  -1.466666666666667 -0.8 0  -1.333333333333333 -0.8 0  -1.2 -0.8 0  -1.066666666666667 -0.8 0  -0.9333333333333333 -0.8 0  -0.8 -0.8 0  -0.6666666666666667 -0.8 0  -0.5333333333333334 -0.8 0  -0.3999999999999999 -0.8 0  -0.2666666666666666 -0.8 0  -0.1333333333333333 -0.8 0  0 -0.8 0  0.1333333333333333 -0.8 0  0.2666666666666666 -0.8 0  0.3999999999999999 -0.8 0  0.5333333333333332 -0.8 0  0.6666666666666665 -0.8 0  0.7999999999999998 -0.8 0  0.9333333333333331 -0.8 0  1.066666666666667 -0.8 0  1.2 -0.8 0  1.333333333333333 -0.8 0  1.466666666666667 -0.8 0  1.6 -0.8 0  1.733333333333333 -0.8 0  1.866666666666667 -0.8 0  2 -0.8 0  -2 -0.6666666666666667 0  -1.866666666666667 -0.
[...]
<PointData  Scalars="f_1363"> 
<DataArray  type="Float64"  Name="f_1363"  format="ascii">0.0000000000000000e+00  0.0000000000000000e+00  0.0000000000000000e+00  0.0000000000000000e+00  0.0000000000000000e+00  0.0000000000000000e+00  0.0000000000000000e+00  0.0000000000000000e+00  0.0000000000000000e+00  0.0000000000000000e+00  0.0000000000000000e+00  0.0000000000000000e+00  0.0000000000000000e+00  0.0000000000000000e+00  0.0000000000000000e+00  0.0000000000000000e+00  0.0000000000000000e+00  0.0000000000000000e+00  0.0000000000000000e+00  0.0000000000000000e+00  0.0000000000000000e+00  0.0000000000000000e+00  0.0000000000000000e+00  0.0000000000000000e+00  0.0000000000000000e+00  0.0000000000000000e+00  0.0000000000000000e+00  0.0000000000000000e+00  0.0000000000000000e+00  0.0000000000000000e+00  0.0000000000000000e+00  0.0000000000000000e+00  1.4691429861625127e-04  2.9196077328969369e-04  4.3366250878294668e-04  5.7052221471261418e-04  7.0107157796199385e-04  8.2389910580237186e-04  9.3767045460697678e-04  1.0411454671559936e-03  1.1331932543373665e-03  1.2128057175223674e-03  1.2791095715637289e-03  1.3313768002114284e-03  1.3690334296773635e-03  1.3916664980394781e-03  1.3990291109549843e-03  1.3910434998625017e-03  1.3678020329481563e-03  1.3295661683228957e-03  1.2767633803481013e-03  1.2099821315399442e-03  1.1299650023156420e-03  1.0376001284950630e-03  9.3391113357211371e-04  8.2004578542943789e-04  6.9726367198521622e-04  5.6692332160824047e-04  4.3046951833581844e-04  2.8942247080037699e-04  1.4537331304782528e-04  0.0000000000000000e+00  0.0000000000000000e+00  2.9196077328969385e-04  5.8037254676780541e-04  8.6219259040305849e-04  1.1344093010003061e-03  1.3940899453828122e-03  1.6384218035046987e-03  1.8647481781079263e-03  2.0706007547262686e-03  2.2537290131288872e-03  2.4121268757969095e-03  2.5440565090544599e-03  2.6480690656014647e-03  2.7230221103719202e-03  2.7680934726788775e-03  2.7827912999893972e-03  2.7669601428192158e-03  2.7207829693730139e-03  2.6447790869802237e-03  2.5397980299097871e-03  2.4070095551870243e-03  2.2478899659632888e-03  2.0642050538933962e-03  1.8579900188577453e-03  1.6315267923275745e-03  1.3873192752474263e-03  1.1280671360979220e-03  8.5663906630111821e-04  5.7604686632464221e-04  2.8942247080037704e-04  0.0000000000000000e+00  0.0000000000000000e+00  4.3366250878294668e-04  8.6219259040305849e-04  1.2810002363459819e-03  1.6855767079492631e-03  2.0715471935702054e-03  2.4347229043343850e-03  2.7711505012535213e-03  3.0771583456153306e-03  3.3493993546978070e-03  3.5848901931563384e-03  3.7810464387576762e-03  3.9357133034862582e-03  4.0471914776029549e-03  4.1142576905934111e-03  4.1361796424182118e-03  4.1127250442795022e-03  4.0441646133560659e-03  3.9312689835158052e-03  3.7752996167045127e-03  3.5779939206928343e-03  3.3415448922581954e-03  3.0685757065025388e-03  2.7621097612144630e-03  2.4255367617096917e-03  2.0625755019408470e-03  1.6772340690848848e-03  1.2737682679832604e-03  8.5663906630111821e-04  4.3046951833581860e-04  0.0000000000000000e+00  0.0000000000000000e+00  5.7052221471261429e-04  1.1344093010003061e-03  1.6855767079492631e-03  2.2180631925069112e-03  2.7260945555590381e-03  3.2041477188647044e-03  3.6470130116063797e-03  4.0498534814709984e-03  4.4082604412141683e-03  4.7183045793530078e-03  4.9765819831280268e-03  5.1802544277640200e-03  5.3270833121963606e-03  5.4154566789569982e-03  5.4444088460147136e-03  5.4136322973864486e-03  5.3234816208867497e-03  5.1749694373876198e-03  4.9697544274850706e-03  4.7101217195120041e-03  4.3989560491441634e-03  4.0397082286384263e-03  3.6363555682185646e-03  3.1933569703622034e-03  2.7156034671797506e-03  2.2083649845155528e-03  1.6772340690848855e-03  1.1280671360979224e-03  5.6692332160824068e-04  0.0000000000000000e+00  0.0000000000000000e+00  7.0107157796199385e-04  1.3940899453828124e-03  2.0715471935702045e-03  2.7260945555590385e-03  3.3506195547195841e-03  3.9383228874623000e-03  4.4827934172059309e-03  4.9780799920242629e-03  5.4187590256199736e-03  5.7999968923094650e-03  6.1176062381375221e-03  6.3680953497869648e-03  6.5487097789425691e-03  6.6574655057428378e-03  6.6931730448398508e-03  6.6554520491273784e-03  6.5447361430147604e-03  6.3622679101417983e-03  6.1100841590403868e-03  5.7909917833907313e-03  5.4085347106742525e-03  4.9669525850225410e-03  4.4711319495358203e-03  3.9265507745022436e-03  3.3392172151661182e-03  2.7156034671797511e-03  2.0625755019408479e-03  1.3873192752474272e-03  6.9726367198521676e-04  0.0000000000000000e+00  0.0000000000000000e+00  8.2389910580237219e-04  1.6384218035046998e-03  2.4347229043343872e-03  3.2041477188647070e-03  3.9383228874623035e-03  4.6292461311328408e-03  5.2693736345136716e-03  5.8517038047845287e-03  6.3698562198914177e-03  6.8181446328495288e-03  7.1916429403471706e-03  7.4862430728299964e-03  7.6987038367852334e-03  7.8266898482345724e-03  7.8687998427009343e-03  7.8245838285498463e-03  7.6945487605232050e-03  7.4801526381557256e-03  7.1837871673034077e-03  6.8087493492163332e-03  6.3592025679051105e-03  5.8401279218602328e-03  5.2572666814244620e-03  4.6170548413981194e-03  3.9265507745022445e-03  3.1933569703622056e-03  2.4255367617096930e-03  1.6315267923275754e-03  8.2004578542943843e-04  0.0000000000000000e+00  0.0000000000000000e+00  9.3767045460697786e-04  1.8647481781079284e-03  2.7711505012535257e-03  3.6470130116063844e-03  4.4827934172059344e-03  5.2693736345136716e-03  5.9981589474243386e-03  6.6611729987224658e-03  7.2511473498164105e-03  7.7616043443902169e-03  8.1869320309174709e-03  8.5224499450250162e-03  8.7644646349016551e-03  8.9103139376227394e-03  8.9583991827281786e-03  8.9082047078347035e-03  8.7603043111671094e-03  8.5163545258894555e-03  8.1790748670394660e-03  7.7522154589130237e-03  7.2405126845921713e-03  6.6496336973049554e-03  5.9861107853521282e-03  5.2572666814244594e-03  4.4711319495358203e-03  3.6363555682185664e-03  2.7621097612144626e-03  1.8579900188577449e-03  9.3391113357211371e-04  0.0000000000000000e+00  0.0000000000000000e+00  1.0411454671559954e-03  2.0706007547262716e-03  3.0771583456153332e-03  4.0498534814710019e-03  4.9780799920242664e-03  5.8517038047845296e-03  6.6611729987224658e-03  7.3976231434728550e-03  8.0529765917282062e-03  8.6200343556993020e-03  9.0925591973543222e-03  9.4653486015256697e-03  9.7342963870826367e-03  9.8964418480348773e-03  9.9500055032410526e-03  9.8944107651368369e-03  9.7302911048837946e-03  9.4594825803216050e-03  9.0850018885067253e-03  8.6110103899929742e-03  8.0427648115029629e-03  7.3865555533691651e-03  6.6496336973049519e-03  5.8401279218602284e-03  4.9669525850225358e-03  4.0397082286384245e-03  3.0685757065025362e-03  2.0642050538933949e-03  1.0376001284950623e-03  0.0000000000000000e+00  0.0000000000000000e+00  1.1331932543373684e-03  2.2537290131288907e-03  3.3493993546978114e-03  4.4082604412141700e-03  5.4187590256199736e-03  6.3698562198914212e-03  7.2511473498164123e-03  8.0529765917282080e-03  8.7665449904350459e-03  9.3840103988451131e-03  9.8985778637210465e-03  1.0304579015134914e-02  1.0597539105253155e-02  1.0774230487832746e-02  1.0832711531691030e-02  1.0772350213027915e-02  1.0593831921879482e-02  1.0299151332526218e-02  9.8915885093262407e-03  9.3756697302796819e-03  8.7571137934752356e-03  8.0427648115029664e-03  7.2405126845921687e-03  6.3592025679051062e-03  5.4085347106742490e-03  4.3989560491441643e-03  3.3415448922581967e-03  2.2478899659632893e-03  1.1299650023156422e-03  0.0000000000000000e+00  0.0000000000000000e+00  1.2128057175223698e-03  2.4121268757969130e-03  3.5848901931563454e-03  4.7183045793530139e-03  5.7999968923094719e-03  6.8181446328495375e-03  7.7616043443902239e-03  8.6200343556993020e-03  9.3840103988451131e-03  1.0045132563414161e-02  1.0596122022373609e-02  1.1030905993601603e-02  1.1344689490569411e-02  1.1534012568563070e-02  1.1596791987024714e-02  1.1532346476826416e-02  1.1341405111562364e-02  1.1026098618426169e-02  1.0589933808609434e-02  1.0037751640233458e-02  9.3756697302796888e-03  8.6110103899929829e-03  7.7522154589130263e-03  6.8087493492163340e-03  5.7909917833907330e-03  4.7101217195120067e-03  3.5779939206928364e-03  2.4070095551870260e-03  1.2099821315399452e-03  0.0000000000000000e+00  0.0000000000000000e+00  1.2791095715637313e-03  2.5440565090544638e-03  3.7810464387576831e-03  4.9765819831280355e-03  6.1176062381375334e-03  7.1916429403471854e-03  8.1869320309174883e-03  9.0925591973543274e-03  9.8985778637210500e-03  1.0596122022373608e-02  1.1177508268810589e-02  1.1636325427119145e-02  1.1967510244276284e-02  1.2167407790157977e-02  1.2233815424152937e-02  1.2166009470975979e-02  1.1964754074833491e-02  1.1632292055716798e-02  1.1172317954915271e-02  1.0589933808609427e-02  9.8915885093262528e-03  9.0850018885067392e-03  8.1790748670394712e-03  7.1837871673034121e-03  6.1100841590403902e-03  4.9697544274850758e-03  3.7752996167045166e-03  2.5397980299097889e-03  1.2767633803481024e-03  0.0000000000000000e+00  0.0000000000000000e+00  1.3313768002114301e-03  2.6480690656014690e-03  3.9357133034862634e-03  5.1802544277640286e-03  6.3680953497869761e-03  7.4862430728300103e-03  8.5224499450250301e-03  9.4653486015256784e-03  1.0304579015134919e-02  1.1030905993601596e-02  1.1636325427119138e-02  1.2114157613962199e-02  1.2459126084189103e-02  1.2667420504282994e-02  1.2736742477154197e-02  1.2666333343969001e-02  1.2456983433463159e-02  1.2111022573225862e-02  1.1632292055716793e-02  1.1026098618426164e-02  1.0299151332526221e-02  9.4594825803216102e-03  8.5163545258894590e-03  7.4801526381557248e-03  6.3622679101418009e-03  5.1749694373876207e-03  3.9312689835158060e-03  2.6447790869802241e-03  1.3295661683228972e-03  0.0000000000000000e+00  0.0000000000000000e+00  1.3690334296773646e-03  2.7230221103719241e-03  4.0471914776029610e-03  5.3270833121963693e-03  6.5487097789425795e-03  7.6987038367852464e-03  8.7644646349016690e-03  9.7342963870826454e-03  1.0597539105253156e-02  1.1344689490569413e-02  1.1967510244276280e-02  1.2459126084189105e-02  1.2814104845555792e-02  1.3028522210958442e-02  1.3100008850605076e-02  1.3027779053598825e-02  1.2812640278874316e-02  1.2456983433463147e-02  1.1964754074833481e-02  1.1341405111562354e-02  1.0593831921879475e-02  9.7302911048837912e-03  8.7603043111671025e-03  7.6945487605231929e-03  6.5447361430147500e-03  5.3234816208867436e-03  4.0441646133560633e-03  2.7207829693730113e-03  1.3678020329481559e-03  0.0000000000000000e+00  0.0000000000000000e+00  1.3916664980394801e-03  2.7680934726788814e-03  4.1142576905934180e-03  5.4154566789570095e-03  6.6574655057428534e-03  7.8266898482345863e-03  8.9103139376227533e-03  9.8964418480348877e-03  1.0774230487832756e-02  1.1534012568563078e-02  1.2167407790157986e-02  1.2667420504283008e-02  1.3028522210958448e-02  1.3246717410910909e-02  1.3319591575503924e-02  1.3246340299310150e-02  1.3027779053598809e-02  1.2666333343968980e-02  1.2166009470975951e-02  1.1532346476826391e-02  1.0772350213027896e-02  9.8944107651368213e-03  8.9082047078346827e-03  7.8245838285498238e-03  6.6554520491273602e-03  5.4136322973864373e-03  4.1127250442794952e-03  2.7669601428192106e-03  1.3910434998624988e-03  0.0000000000000000e+00  0.0000000000000000e+00  1.3990291109549878e-03  2.7827912999894050e-03  4.1361796424182204e-03  5.4444088460147240e-03  6.6931730448398655e-03  7.8687998427009499e-03  8.9583991827281977e-03  9.9500055032410700e-03  1.0832711531691047e-02  1.1596791987024735e-02  1.2233815424152954e-02  1.2736742477154211e-02  1.3100008850605084e-02  1.3319591575503930e-02  1.3393057285807411e-02  1.3319591575503923e-02  1.3100008850605060e-02  1.2736742477154166e-02  1.2233815424152897e-02  1.1596791987024678e-02  1.0832711531690995e-02  9.9500055032410301e-03  8.9583991827281509e-03  7.8687998427009048e-03  6.6931730448398256e-03  5.4444088460146936e-03  4.1361796424181970e-03  2.7827912999893885e-03  1.3990291109549798e-03  0.0000000000000000e+00  0.0000000000000000e+00  1.3910434998625056e-03  2.7669601428192249e-03  4.1127250442795152e-03  5.4136322973864616e-03  6.6554520491273932e-03  7.8245838285498602e-03  8.9082047078347191e-03  9.8944107651368577e-03  1.0772350213027944e-02  1.1532346476826440e-02  1.2166009470976001e-02  1.2666333343969020e-02  1.3027779053598835e-02  1.3246340299310166e-02  1.3319591575503924e-02  1.3246717410910899e-02  1.3028522210958416e-02  1.2667420504282965e-02  1.2167407790157929e-02  1.1534012568563021e-02  1.0774230487832707e-02  9.8964418480348443e-03  8.9103139376227065e-03  7.8266898482345360e-03  6.6574655057428083e-03  5.4154566789569748e-03  4.1142576905933929e-03  2.7680934726788662e-03  1.3916664980394718e-03  0.0000000000000000e+00  0.0000000000000000e+00  1.3678020329481605e-03  2.7207829693730208e-03  4.0441646133560780e-03  5.3234816208867636e-03  6.5447361430147760e-03  7.6945487605232180e-03  8.7603043111671251e-03  9.7302911048838172e-03  1.0593831921879506e-02  1.1341405111562394e-02  1.1964754074833514e-02  1.2456983433463185e-02  1.2812640278874342e-02  1.3027779053598828e-02  1.3100008850605064e-02  1.3028522210958416e-02  1.2814104845555755e-02  1.2459126084189058e-02  1.1967510244276227e-02  1.1344689490569354e-02  1.0597539105253106e-02  9.7342963870826003e-03  8.7644646349016152e-03  7.6987038367851944e-03  6.5487097789425370e-03  5.3270833121963363e-03  4.0471914776029376e-03  2.7230221103719068e-03  1.3690334296773566e-03  0.0000000000000000e+00  0.0000000000000000e+00  1.3295661683228998e-03  2.6447790869802306e-03  3.9312689835158164e-03  5.1749694373876345e-03  6.3622679101418174e-03  7.4801526381557430e-03  8.5163545258894729e-03  9.4594825803216223e-03  1.0299151332526237e-02  1.1026098618426192e-02  1.1632292055716824e-02  1.2111022573225895e-02  1.2456983433463183e-02  1.2666333343969006e-02  1.2736742477154183e-02  1.2667420504282973e-02  1.2459126084189068e-02  1.2114157613962151e-02  1.1636325427119081e-02  1.1030905993601540e-02  1.0304579015134860e-02  9.4653486015256246e-03  8.5224499450249711e-03  7.4862430728299565e-03  6.3680953497869328e-03  5.1802544277639931e-03  3.9357133034862357e-03  2.6480690656014490e-03  1.3313768002114206e-03  0.0000000000000000e+00  0.0000000000000000e+00  1.2767633803481052e-03  2.5397980299097954e-03  3.7752996167045223e-03  4.9697544274850828e-03  6.1100841590404006e-03  7.1837871673034251e-03  8.1790748670394781e-03  9.0850018885067392e-03  9.8915885093262632e-03  1.0589933808609453e-02  1.1172317954915309e-02  1.1632292055716824e-02  1.1964754074833514e-02  1.2166009470975979e-02  1.2233815424152920e-02  1.2167407790157942e-02  1.1967510244276239e-02  1.1636325427119090e-02  1.1177508268810532e-02  1.0596122022373549e-02  9.8985778637209944e-03  9.0925591973542753e-03  8.1869320309174258e-03  7.1916429403471333e-03  6.1176062381374874e-03  4.9765819831280008e-03  3.7810464387576541e-03  2.5440565090544430e-03  1.2791095715637211e-03  0.0000000000000000e+00  0.0000000000000000e+00  1.2099821315399474e-03  2.4070095551870308e-03  3.5779939206928429e-03  4.7101217195120162e-03  5.7909917833907469e-03  6.8087493492163488e-03  7.7522154589130367e-03  8.6110103899929881e-03  9.3756697302797010e-03  1.0037751640233478e-02  1.0589933808609456e-02  1.1026098618426190e-02  1.1341405111562381e-02  1.1532346476826414e-02  1.1596791987024697e-02  1.1534012568563038e-02  1.1344689490569371e-02  1.1030905993601549e-02  1.0596122022373550e-02  1.0045132563414111e-02  9.3840103988450663e-03  8.6200343556992604e-03  7.7616043443901788e-03  6.8181446328494932e-03  5.7999968923094329e-03  4.7183045793529818e-03  3.5848901931563189e-03  2.4121268757968948e-03  1.2128057175223607e-03  0.0000000000000000e+00  0.0000000000000000e+00  1.1299650023156443e-03  2.2478899659632945e-03  3.3415448922582036e-03  4.3989560491441730e-03  5.4085347106742621e-03  6.3592025679051218e-03  7.2405126845921843e-03  8.0427648115029681e-03  8.7571137934752408e-03  9.3756697302797010e-03  9.8915885093262632e-03  1.0299151332526235e-02  1.0593831921879482e-02  1.0772350213027906e-02  1.0832711531691012e-02  1.0774230487832714e-02  1.0597539105253120e-02  1.0304579015134874e-02  9.8985778637209997e-03  9.3840103988450663e-03  8.7665449904350060e-03  8.0529765917281716e-03  7.2511473498163767e-03  6.3698562198913813e-03  5.4187590256199432e-03  4.4082604412141405e-03  3.3493993546977866e-03  2.2537290131288737e-03  1.1331932543373602e-03  0.0000000000000000e+00  0.0000000000000000e+00  1.0376001284950649e-03  2.0642050538934005e-03  3.0685757065025444e-03  4.0397082286384332e-03  4.9669525850225471e-03  5.8401279218602414e-03  6.6496336973049667e-03  7.3865555533691738e-03  8.0427648115029751e-03  8.6110103899929916e-03  9.0850018885067444e-03  9.4594825803216188e-03  9.7302911048838033e-03  9.8944107651368369e-03  9.9500055032410474e-03  9.8964418480348600e-03  9.7342963870826176e-03  9.4653486015256402e-03  9.0925591973542875e-03  8.6200343556992673e-03  8.0529765917281733e-03  7.3976231434728290e-03  6.6611729987224354e-03  5.8517038047844923e-03  4.9780799920242326e-03  4.0498534814709750e-03  3.0771583456153137e-03  2.0706007547262578e-03  1.0411454671559880e-03  0.0000000000000000e+00  0.0000000000000000e+00  9.3391113357211533e-04  1.8579900188577488e-03  2.7621097612144678e-03  3.6363555682185694e-03  4.4711319495358238e-03  5.2572666814244672e-03  5.9861107853521368e-03  6.6496336973049588e-03  7.2405126845921722e-03  7.7522154589130280e-03  8.1790748670394729e-03  8.5163545258894642e-03  8.7603043111671147e-03  8.9082047078346965e-03  8.9583991827281700e-03  8.9103139376227221e-03  8.7644646349016343e-03  8.5224499450249867e-03  8.1869320309174449e-03  7.7616043443901866e-03  7.2511473498163819e-03  6.6611729987224363e-03  5.9981589474243056e-03  5.2693736345136360e-03  4.4827934172059014e-03  3.6470130116063580e-03  2.7711505012535053e-03  1.8647481781079152e-03  9.3767045460697081e-04  0.0000000000000000e+00  0.0000000000000000e+00  8.2004578542943930e-04  1.6315267923275771e-03  2.4255367617096956e-03  3.1933569703622082e-03  3.9265507745022471e-03  4.6170548413981237e-03  5.2572666814244646e-03  5.8401279218602336e-03  6.3592025679051123e-03  6.8087493492163366e-03  7.1837871673034164e-03  7.4801526381557300e-03  7.6945487605232007e-03  7.8245838285498359e-03  7.8687998427009204e-03  7.8266898482345533e-03  7.6987038367852135e-03  7.4862430728299713e-03  7.1916429403471463e-03  6.8181446328494993e-03  6.3698562198913865e-03  5.8517038047844975e-03  5.2693736345136386e-03  4.6292461311328104e-03  3.9383228874622749e-03  3.2041477188646853e-03  2.4347229043343703e-03  1.6384218035046883e-03  8.2389910580236601e-04  0.0000000000000000e+00  0.0000000000000000e+00  6.9726367198521741e-04  1.3873192752474285e-03  2.0625755019408492e-03  2.7156034671797541e-03  3.3392172151661217e-03  3.9265507745022471e-03  4.4711319495358203e-03  4.9669525850225384e-03  5.4085347106742499e-03  5.7909917833907330e-03  6.1100841590403937e-03  6.3622679101418052e-03  6.5447361430147561e-03  6.6554520491273724e-03  6.6931730448398395e-03  6.6574655057428187e-03  6.5487097789425509e-03  6.3680953497869449e-03  6.1176062381374987e-03  5.7999968923094407e-03  5.4187590256199476e-03  4.9780799920242369e-03  4.4827934172059049e-03  3.9383228874622749e-03  3.3506195547195611e-03  2.7260945555590203e-03  2.0715471935701920e-03  1.3940899453828033e-03  7.0107157796198843e-04  0.0000000000000000e+00  0.0000000000000000e+00  5.6692332160824122e-04  1.1280671360979237e-03  1.6772340690848872e-03  2.2083649845155563e-03  2.7156034671797554e-03  3.1933569703622077e-03  3.6363555682185655e-03  4.0397082286384245e-03  4.3989560491441643e-03  4.7101217195120067e-03  4.9697544274850767e-03  5.1749694373876241e-03  5.3234816208867480e-03  5.4136322973864443e-03  5.4444088460147040e-03  5.4154566789569843e-03  5.3270833121963450e-03  5.1802544277640009e-03  4.9765819831280051e-03  4.7183045793529870e-03  4.4082604412141457e-03  4.0498534814709794e-03  3.6470130116063