<?xml version="1.0"?>
<VTKFile type="UnstructuredGrid"  version="0.1"  >
<UnstructuredGrid>
<Piece  NumberOfPoints="961" NumberOfCells="1800">
<Points>
<DataArray  type="Float64"  NumberOfComponents="3"  format="ascii">-2 -2 0  -1.866666666666667 -2 0  -1.733333333333333 -2 0  -1.6 -2 0  -1.466666666666667 -2 0  -1.333333333333333 -2 0  -1.2 -2 0  -1.066666666666667 -2 0  -0.9333333333333333 -2 0  -0.8 -2 0  -0.6666666666666667 -2 0  -0.5333333333333334 -2 0  -0.3999999999999999 -2 0  -0.2666666666666666 -2 0  -0.1333333333333333 -2 0  0 -2 0  0.1333333333333333 -2 0  0.2666666666666666 -2 0  0.3999999999999999 -2 0  0.5333333333333332 -2 0  0.6666666666666665 -2 0  0.7999999999999998 -2 0  0.9333333333333331 -2 0  1.066666666666667 -2 0  1.2 -2 0  1.333333333333333 -2 0  1.466666666666667 -2 0  1.6 -2 0  1.733333333333333 -2 0  1.866666666666667 -2 0  2 -2 0  -2 -1.866666666666667 0  -1.866666666666667 -1.866666666666667 0  -1.733333333333333 -1.866666666666667 0  -1.6 -1.866666666666667 0  -1.466666666666667 -1.866666666666667 0  -1.333333333333333 -1.866666666666667 0  -1.2 -1.866666666666667 0  -1.066666666666667 -1.866666666666667 0  -0.9333333333333333 -1.866666666666667 0  -0.8 -1.866666666666667 0  -0.6666666666666667 -1.866666666666667 0  -0.5333333333333334 -1.866666666666667 0  -0.3999999999999999 -1.866666666666667 0  -0.2666666666666666 -1.866666666666667 0  -0.1333333333333333 -1.866666666666667 0  0 -1.866666666666667 0  0.1333333333333333 -1.866666666666667 0  0.2666666666666666 -1.866666666666667 0  0.3999999999999999 -1.866666666666667 0  0.5333333333333332 -1.866666666666667 0  0.6666666666666665 -1.866666666666667 0  0.7999999999999998 -1.866666666666667 0  0.9333333333333331 -1.866666666666667 0  1.066666666666667 -1.866666666666667 0  1.2 -1.866666666666667 0  1.333333333333333 -1.866666666666667 0  1.466666666666667 -1.866666666666667 0  1.6 -1.866666666666667 0  1.733333333333333 -1.866666666666667 0  1.866666666666667 -1.866666666666667 0  2 -1.866666666666667 0  -2 -1.733333333333333 0  -1.866666666666667 -1.733333333333333 0  -1.733333333333333 -1.733333333333333 0  -1.6 -1.733333333333333 0  -1.466666666666667 -1.733333333333333 0  -1.333333333333333 -1.733333333333333 0  -1.2 -1.733333333333333 0  -1.066666666666667 -1.733333333333333 0  -0.9333333333333333 -1.733333333333333 0  -0.8 -1.733333333333333 0  -0.6666666666666667 -1.733333333333333 0  -0.5333333333333334 -1.733333333333333 0  -0.3999999999999999 -1.733333333333333 0  -0.2666666666666666 -1.733333333333333 0  -0.1333333333333333 -1.733333333333333 0  0 -1.733333333333333 0  0.1333333333333333 -1.733333333333333 0  0.2666666666666666 -1.733333333333333 0  0.3999999999999999 -1.733333333333333 0  0.5333333333333332 -1.733333333333333 0  0.6666666666666665 -1.733333333333333 0  0.7999999999999998 -1.733333333333333 0  0.9333333333333331 -1.733333333333333 0  1.066666666666667 -1.733333333333333 0  1.2 -1.733333333333333 0  1.333333333333333 -1.733333333333333 0  1.466666666666667 -1.733333333333333 0  1.6 -1.733333333333333 0  1.733333333333333 -1.733333333333333 0  1.866666666666667 -1.733333333333333 0  2 -1.733333333333333 0  -2 -1.6 0  -1.866666666666667 -1.6 0  -1.733333333333333 -1.6 0  -1.6 -1.6 0  -1.466666666666667 -1.6 0  -1.333333333333333 -1.6 0  -1.2 -1.6 0  -1.066666666666667 -1.6 0  -0.9333333333333333 -1.6 0  -0.8 -1.6 0  -0.6666666666666667 -1.6 0  -0.5333333333333334 -1.6 0  -0.3999999999999999 -1.6 0  -0.2666666666666666 -1.6 0  -0.1333333333333333 -1.6 0  0 -1.6 0  0.1333333333333333 -1.6 0  0.2666666666666666 -1.6 0  0.3999999999999999 -1.6 0  0.5333333333333332 -1.6 0  0.6666666666666665 -1.6 0  0.7999999999999998 -1.6 0  0.9333333333333331 -1.6 0  1.066666666666667 -1.6 0  1.2 -1.6 0  1.333333333333333 -1.6 0  1.466666666666667 -1.6 0  1.6 -1.6 0  1.733333333333333 -1.6 0  1.866666666666667 -1.6 0  2 -1.6 0  -2 -1.466666666666667 0  -1.866666666666667 -1.466666666666667 0  -1.733333333333333 -1.466666666666667 0  -1.6 -1.466666666666667 0  -1.466666666666667 -1.466666666666667 0  -1.333333333333333 -1.466666666666667 0  -1.2 -1.466666666666667 0  -1.066666666666667 -1.466666666666667 0  -0.9333333333333333 -1.466666666666667 0  -0.8 -1.466666666666667 0  -0.6666666666666667 -1.466666666666667 0  -0.5333333333333334 -1.466666666666667 0  -0.3999999999999999 -1.466666666666667 0  -0.2666666666666666 -1.466666666666667 0  -0.1333333333333333 -1.466666666666667 0  0 -1.466666666666667 0  0.1333333333333333 -1.466666666666667 0  0.2666666666666666 -1.466666666666667 0  0.3999999999999999 -1.466666666666667 0  0.5333333333333332 -1.466666666666667 0  0.6666666666666665 -1.466666666666667 0  0.7999999999999998 -1.466666666666667 0  0.9333333333333331 -1.466666666666667 0  1.066666666666667 -1.466666666666667 0  1.2 -1.466666666666667 0  1.333333333333333 -1.466666666666667 0  1.466666666666667 -1.466666666666667 0  1.6 -1.466666666666667 0  1.733333333333333 -1.466666666666667 0  1.866666666666667 -1.466666666666667 0  2 -1.466666666666667 0  -2 -1.333333333333333 0  -1.866666666666667 -1.333333333333333 0  -1.733333333333333 -1.333333333333333 0  -1.6 -1.333333333333333 0  -1.466666666666667 -1.333333333333333 0  -1.333333333333333 -1.333333333333333 0  -1.2 -1.333333333333333 0  -1.066666666666667 -1.333333333333333 0  -0.9333333333333333 -1.333333333333333 0  -0.8 -1.333333333333333 0  -0.6666666666666667 -1.333333333333333 0  -0.5333333333333334 -1.333333333333333 0  -0.3999999999999999 -1.333333333333333 0  -0.2666666666666666 -1.333333333333333 0  -0.1333333333333333 -1.333333333333333 0  0 -1.333333333333333 0  0.1333333333333333 -1.333333333333333 0  0.2666666666666666 -1.333333333333333 0  0.3999999999999999 -1.333333333333333 0  0.5333333333333332 -1.333333333333333 0  0.6666666666666665 -1.333333333333333 0  0.7999999999999998 -1.333333333333333 0  0.9333333333333331 -1.333333333333333 0  1.066666666666667 -1.333333333333333 0  1.2 -1.333333333333333 0  1.333333333333333 -1.333333333333333 0  1.466666666666667 -1.333333333333333 0  1.6 -1.333333333333333 0  1.733333333333333 -1.333333333333333 0  1.866666666666667 -1.333333333333333 0  2 -1.333333333333333 0  -2 -1.2 0  -1.866666666666667 -1.2 0  -1.733333333333333 -1.2 0  -1.6 -1.2 0  -1.466666666666667 -1.2 0  -1.333333333333333 -1.2 0  -1.2 -1.2 0  -1.066666666666667 -1.2 0  -0.9333333333333333 -1.2 0  -0.8 -1.2 0  -0.6666666666666667 -1.2 0  -0.5333333333333334 -1.2 0  -0.3999999999999999 -1.2 0  -0.2666666666666666 -1.2 0  -0.1333333333333333 -1.2 0  0 -1.2 0  0.1333333333333333 -1.2 0  0.2666666666666666 -1.2 0  0.3999999999999999 -1.2 0  0.5333333333333332 -1.2 0  0.6666666666666665 -1.2 0  0.7999999999999998 -1.2 0  0.9333333333333331 -1.2 0  1.066666666666667 -1.2 0  1.2 -1.2 0  1.333333333333333 -1.2 0  1.466666666666667 -1.2 0  1.6 -1.2 0  1.733333333333333 -1.2 0  1.866666666666667 -1.2 0  2 -1.2 0  -2 -1.066666666666667 0  -1.866666666666667 -1.066666666666667 0  -1.733333333333333 -1.066666666666667 0  -1.6 -1.066666666666667 0  -1.466666666666667 -1.066666666666667 0  -1.333333333333333 -1.066666666666667 0  -1.2 -1.066666666666667 0  -1.066666666666667 -1.066666666666667 0  -0.9333333333333333 -1.066666666666667 0  -0.8 -1.066666666666667 0  -0.6666666666666667 -1.066666666666667 0  -0.5333333333333334 -1.066666666666667 0  -0.3999999999999999 -1.066666666666667 0  -0.2666666666666666 -1.066666666666667 0  -0.1333333333333333 -1.066666666666667 0  0 -1.066666666666667 0  0.1333333333333333 -1.066666666666667 0  0.2666666666666666 -1.066666666666667 0  0.3999999999999999 -1.066666666666667 0  0.5333333333333332 -1.066666666666667 0  0.6666666666666665 -1.066666666666667 0  0.7999999999999998 -1.066666666666667 0  0.9333333333333331 -1.066666666666667 0  1.066666666666667 -1.066666666666667 0  1.2 -1.066666666666667 0  1.333333333333333 -1.066666666666667 0  1.466666666666667 -1.066666666666667 0  1.6 -1.066666666666667 0  1.733333333333333 -1.066666666666667 0  1.866666666666667 -1.066666666666667 0  2 -1.066666666666667 0  -2 -0.9333333333333333 0  -1.866666666666667 -0.9333333333333333 0  -1.733333333333333 -0.9333333333333333 0  -1.6 -0.9333333333333333 0  -1.466666666666667 -0.9333333333333333 0  -1.333333333333333 -0.9333333333333333 0  -1.2 -0.9333333333333333 0  -1.066666666666667 -0.9333333333333333 0  -0.9333333333333333 -0.9333333333333333 0  -0.8 -0.9333333333333333 0  -0.6666666666666667 -0.9333333333333333 0  -0.5333333333333334 -0.9333333333333333 0  -0.3999999999999999 -0.9333333333333333 0  -0.2666666666666666 -0.9333333333333333 0  -0.1333333333333333 -0.9333333333333333 0  0 -0.9333333333333333 0  0.1333333333333333 -0.9333333333333333 0  0.2666666666666666 -0.9333333333333333 0  0.3999999999999999 -0.9333333333333333 0  0.5333333333333332 -0.9333333333333333 0  0.6666666666666665 -0.9333333333333333 0  0.7999999999999998 -0.9333333333333333 0  0.9333333333333331 -0.9333333333333333 0  1.066666666666667 -0.9333333333333333 0  1.2 -0.9333333333333333 0  1.333333333333333 -0.9333333333333333 0  1.466666666666667 -0.9333333333333333 0  1.6 -0.9333333333333333 0  1.733333333333333 -0.9333333333333333 0  1.866666666666667 -0.9333333333333333 0  2 -0.9333333333333333 0  -2 -0.8 0  -1.866666666666667 -0.8 0  -1.733333333333333 -0.8 0  -1.6 -0.8 0  -1.466666666666667 -0.8 0  -1.333333333333333 -0.8 0  -1.2 -0.8 0  -1.066666666666667 -0.8 0  -0.9333333333333333 -0.8 0  -0.8 -0.8 0  -0.6666666666666667 -0.8 0  -0.5333333333333334 -0.8 0  -0.3999999999999999 -0.8 0  -0.2666666666666666 -0.8 0  -0.1333333333333333 -0.8 0  0 -0.8 0  0.1333333333333333 -0.8 0  0.2666666666666666 -0.8 0  0.3999999999999999 -0.8 0  0.5333333333333332 -0.8 0  0.6666666666666665 -0.8 0  0.7999999999999998 -0.8 0  0.9333333333333331 -0.8 0  1.066666666666667 -0.8 0  1.2 -0.8 0  1.333333333333333 -0.8 0  1.466666666666667 -0.8 0  1.6 -0.8 0  1.733333333333333 -0.8 0  1.866666666666667 -0.8 0  2 -0.8 0  -2 -0.6666666666666667 0  -1.866666666666667 -0.
[...]
<PointData  Scalars="f_1363"> 
<DataArray  type="Float64"  Name="f_1363"  format="ascii">0.0000000000000000e+00  0.0000000000000000e+00  0.0000000000000000e+00  0.0000000000000000e+00  0.0000000000000000e+00  0.0000000000000000e+00  0.0000000000000000e+00  0.0000000000000000e+00  0.0000000000000000e+00  0.0000000000000000e+00  0.0000000000000000e+00  0.0000000000000000e+00  0.0000000000000000e+00  0.0000000000000000e+00  0.0000000000000000e+00  0.0000000000000000e+00  0.0000000000000000e+00  0.0000000000000000e+00  0.0000000000000000e+00  0.0000000000000000e+00  0.0000000000000000e+00  0.0000000000000000e+00  0.0000000000000000e+00  0.0000000000000000e+00  0.0000000000000000e+00  0.0000000000000000e+00  0.0000000000000000e+00  0.0000000000000000e+00  0.0000000000000000e+00  0.0000000000000000e+00  0.0000000000000000e+00  0.0000000000000000e+00  1.0255542947050699e-04  2.0380354080534388e-04  3.0271094281879816e-04  3.9823057685285830e-04  4.8933645468044124e-04  5.7504325518753507e-04  6.5442055977240254e-04  7.2660467799949991e-04  7.9080900519847778e-04  8.4633320624269859e-04  8.9257129277988203e-04  9.2901857744807220e-04  9.5527745926638754e-04  9.7106198831649045e-04  9.7620116302763891e-04  9.7064092468742314e-04  9.5444482869074855e-04  9.2779338907041987e-04  8.9098211110575395e-04  8.4441824571359334e-04  7.8861631871308610e-04  7.2419250838489714e-04  6.5185796774744028e-04  5.7241121821088273e-04  4.8672979032439814e-04  3.9576138590627125e-04  3.0051507171820348e-04  2.0205366143091172e-04  1.0149042697545451e-04  0.0000000000000000e+00  0.0000000000000000e+00  2.0380354080534402e-04  4.0512317564288041e-04  6.0182990638108153e-04  7.9181770016019230e-04  9.7303729407613188e-04  1.1435252091599980e-03  1.3014289692980809e-03  1.4450295548975871e-03  1.5727615951405904e-03  1.6832314620885509e-03  1.7752332577933999e-03  1.8477626086785656e-03  1.9000281545054063e-03  1.9314606191415580e-03  1.9417193656146488e-03  1.9306963625804099e-03  1.8985175199066242e-03  1.8455413853194855e-03  1.7723552303661363e-03  1.6797685911881795e-03  1.5688043672120494e-03  1.4406876191571101e-03  1.2968322486137938e-03  1.1388257897010439e-03  9.6841260977452524e-04  7.8747592362191522e-04  5.9801921928835753e-04  4.0214804741815129e-04  2.0205366143091175e-04  0.0000000000000000e+00  0.0000000000000000e+00  3.0271094281879827e-04  6.0182990638108153e-04  8.9414529576002416e-04  1.1765041417984437e-03  1.4458495391550771e-03  1.6992574344082286e-03  1.9339712455073079e-03  2.1474339442334274e-03  2.3373174685002388e-03  2.5015493251382202e-03  2.6383362047273941e-03  2.7461844074687055e-03  2.8239168784184735e-03  2.8706866677207033e-03  2.8859866621858739e-03  2.8696554749885377e-03  2.8218794274765292e-03  2.7431906086986097e-03  2.6344610522260592e-03  2.4968931244922408e-03  2.3320062730155461e-03  2.1416203360376039e-03  1.9278356678967970e-03  1.6930103889468517e-03  1.4397351287775951e-03  1.1708057008927252e-03  8.8919422159463625e-04  5.9801921928835774e-04  3.0051507171820359e-04  0.0000000000000000e+00  0.0000000000000000e+00  3.9823057685285868e-04  7.9181770016019295e-04  1.1765041417984440e-03  1.5481212612097357e-03  1.9026343884224976e-03  2.2361881049105261e-03  2.5451498743244722e-03  2.8261511772904764e-03  3.0761256234585208e-03  3.2923436357175421e-03  3.4724433481718776e-03  3.6144573870687986e-03  3.7168352337755440e-03  3.7784609077836356e-03  3.7986657565195567e-03  3.7772361962920445e-03  3.7144163130383222e-03  3.6109053003808103e-03  3.4678497835516284e-03  3.2868311487842293e-03  3.0698480668914056e-03  2.8192944654475910e-03  2.5379332652205899e-03  2.2288662523607026e-03  1.8955005064355916e-03  1.5415118392730089e-03  1.1708057008927256e-03  7.8747592362191543e-04  3.9576138590627141e-04  0.0000000000000000e+00  0.0000000000000000e+00  4.8933645468044178e-04  9.7303729407613318e-04  1.4458495391550784e-03  1.9026343884224984e-03  2.3384221721862350e-03  2.7484667002842965e-03  3.1282977987327504e-03  3.4737711141501668e-03  3.7811144749923791e-03  4.0469702246396493e-03  4.2684330180066182e-03  4.4430826299678003e-03  4.5690113774833445e-03  4.6448458159133559e-03  4.6697624365114572e-03  4.6434971665935054e-03  4.5663485549930364e-03  4.4391746109437137e-03  4.2633833518801951e-03  4.0409172021199941e-03  3.7742314673684507e-03  3.4662671870579502e-03  3.1204187353887952e-03  2.7404965999583536e-03  2.3306858099766833e-03  1.8955005064355923e-03  1.4397351287775959e-03  9.6841260977452600e-04  4.8672979032439835e-04  0.0000000000000000e+00  0.0000000000000000e+00  5.7504325518753583e-04  1.1435252091600001e-03  1.6992574344082312e-03  2.2361881049105282e-03  2.7484667002842982e-03  3.2305074593166065e-03  3.6770506002926314e-03  4.0832204052683157e-03  4.4445793742113543e-03  4.7571777490479751e-03  5.0175977844863434e-03  5.2229922108894223e-03  5.3711164030139612e-03  5.4603538425306852e-03  5.4897345442851608e-03  5.4589462064017092e-03  5.3683379412031110e-03  5.2189165451664177e-03  5.0123353688380345e-03  4.7508759486150666e-03  4.4374226583734442e-03  4.0754307270147302e-03  3.6688880451401398e-03  3.2222712471177187e-03  2.7404965999583545e-03  2.2288662523607039e-03  1.6930103889468526e-03  1.1388257897010444e-03  5.7241121821088306e-04  0.0000000000000000e+00  0.0000000000000000e+00  6.5442055977240384e-04  1.3014289692980844e-03  1.9339712455073118e-03  2.5451498743244753e-03  3.1282977987327539e-03  3.6770506002926327e-03  4.1854159743392435e-03  4.6478396046590034e-03  5.0592665939645934e-03  5.4151976710234973e-03  5.7117394633419017e-03  5.9456481955338456e-03  6.1143662506458534e-03  6.2160511172140165e-03  6.2495963397680146e-03  6.2146441944121722e-03  6.1115899222681175e-03  5.9415774692626357e-03  5.7064867976745863e-03  5.4089129494034049e-03  5.0521371494419622e-03  4.6400903370483167e-03  4.1773095984011582e-03  3.6688880451401389e-03  3.1204187353887948e-03  2.5379332652205890e-03  1.9278356678967966e-03  1.2968322486137935e-03  6.5185796774744017e-04  0.0000000000000000e+00  0.0000000000000000e+00  7.2660467799950132e-04  1.4450295548975901e-03  2.1474339442334313e-03  2.8261511772904794e-03  3.4737711141501698e-03  4.0832204052683166e-03  4.6478396046590034e-03  5.1614562230025323e-03  5.6184528333516970e-03  6.0138293882865436e-03  6.3432589672595451e-03  6.6031362439220908e-03  6.7906180454560773e-03  6.9036554698360493e-03  6.9410171323603430e-03  6.9023032285106013e-03  6.7879502239677671e-03  6.5992261112983600e-03  6.3382163027006187e-03  6.0078003552518616e-03  5.6116198453212973e-03  5.1540378184746624e-03  4.6400903370483141e-03  4.0754307270147259e-03  3.4662671870579471e-03  2.8192944654475897e-03  2.1416203360376035e-03  1.4406876191571092e-03  7.2419250838489638e-04  0.0000000000000000e+00  0.0000000000000000e+00  7.9080900519847908e-04  1.5727615951405935e-03  2.3373174685002427e-03  3.0761256234585247e-03  3.7811144749923843e-03  4.4445793742113578e-03  5.0592665939645943e-03  5.6184528333516953e-03  6.1160193093363372e-03  6.5465195409847949e-03  6.9052399868634587e-03  7.1882527668646976e-03  7.3924597854928545e-03  7.5156276739647820e-03  7.5564130823924259e-03  7.5143779789851360e-03  7.3899947478730148e-03  7.1846410172440346e-03  6.9005842908839588e-03  6.5409565945372594e-03  6.1097194794720953e-03  5.6116198453212999e-03  5.0521371494419596e-03  4.4374226583734416e-03  3.7742314673684480e-03  3.0698480668914065e-03  2.3320062730155457e-03  1.5688043672120490e-03  7.8861631871308588e-04  0.0000000000000000e+00  0.0000000000000000e+00  8.4633320624270033e-04  1.6832314620885541e-03  2.5015493251382246e-03  3.2923436357175481e-03  4.0469702246396563e-03  4.7571777490479812e-03  5.4151976710235033e-03  6.0138293882865453e-03  6.5465195409847949e-03  7.0074345529376504e-03  7.3915255188322700e-03  7.6945846200301010e-03  7.9132923403257959e-03  8.0452548584473912e-03  8.0890311149010487e-03  8.0441491846806584e-03  7.9111117312137252e-03  7.6913904667586458e-03  7.3874096958339861e-03  7.0025191664657418e-03  6.5409565945372637e-03  6.0078003552518685e-03  5.4089129494034058e-03  4.7508759486150657e-03  4.0409172021199950e-03  3.2868311487842298e-03  2.4968931244922412e-03  1.6797685911881799e-03  8.4441824571359356e-04  0.0000000000000000e+00  0.0000000000000000e+00  8.9257129277988388e-04  1.7752332577934036e-03  2.6383362047273989e-03  3.4724433481718832e-03  4.2684330180066243e-03  5.0175977844863521e-03  5.7117394633419104e-03  6.3432589672595503e-03  6.9052399868634613e-03  7.3915255188322692e-03  7.7967863119696272e-03  8.1165803743237386e-03  8.3474027757423994e-03  8.4867250898470175e-03  8.5330239457524614e-03  8.4857983004326433e-03  8.3455751939799649e-03  8.1139039078950929e-03  7.7933386062183285e-03  7.3874096958339904e-03  6.9005842908839692e-03  6.3382163027006309e-03  5.7064867976745906e-03  5.0123353688380388e-03  4.2633833518801977e-03  3.4678497835516310e-03  2.6344610522260614e-03  1.7723552303661372e-03  8.9098211110575439e-04  0.0000000000000000e+00  0.0000000000000000e+00  9.2901857744807361e-04  1.8477626086785689e-03  2.7461844074687090e-03  3.6144573870688038e-03  4.4430826299678072e-03  5.2229922108894319e-03  5.9456481955338552e-03  6.6031362439220994e-03  7.1882527668647063e-03  7.6945846200300993e-03  8.1165803743237334e-03  8.4496122749929039e-03  8.6900280954212480e-03  8.8351922044302856e-03  8.8835152964945961e-03  8.8344723799643511e-03  8.6886087755431093e-03  8.4475340414457822e-03  8.1139039078950946e-03  7.6913904667586484e-03  7.1846410172440407e-03  6.5992261112983661e-03  5.9415774692626417e-03  5.2189165451664186e-03  4.4391746109437146e-03  3.6109053003808107e-03  2.7431906086986106e-03  1.8455413853194862e-03  9.2779338907042009e-04  0.0000000000000000e+00  0.0000000000000000e+00  9.5527745926638863e-04  1.9000281545054093e-03  2.8239168784184791e-03  3.7168352337755509e-03  4.5690113774833497e-03  5.3711164030139707e-03  6.1143662506458630e-03  6.7906180454560885e-03  7.3924597854928666e-03  7.9132923403257942e-03  8.3474027757423977e-03  8.6900280954212480e-03  8.9374085856985495e-03  9.0868300647127531e-03  9.1366544707585061e-03  9.0863383739397674e-03  8.9364391564588589e-03  8.6886087755431041e-03  8.3455751939799615e-03  7.9111117312137200e-03  7.3899947478730122e-03  6.7879502239677671e-03  6.1115899222681140e-03  5.3683379412031050e-03  4.5663485549930303e-03  3.7144163130383187e-03  2.8218794274765284e-03  1.8985175199066229e-03  9.5444482869074801e-04  0.0000000000000000e+00  0.0000000000000000e+00  9.7106198831649272e-04  1.9314606191415619e-03  2.8706866677207111e-03  3.7784609077836434e-03  4.6448458159133654e-03  5.4603538425306930e-03  6.2160511172140234e-03  6.9036554698360605e-03  7.5156276739647915e-03  8.0452548584473964e-03  8.4867250898470244e-03  8.8351922044302977e-03  9.0868300647127583e-03  9.2388755320055357e-03  9.2896595815692377e-03  9.2386261382338825e-03  9.0863383739397553e-03  8.8344723799643338e-03  8.4857983004326207e-03  8.0441491846806445e-03  7.5143779789851265e-03  6.9023032285105953e-03  6.2146441944121618e-03  5.4589462064016971e-03  4.6434971665934941e-03  3.7772361962920367e-03  2.8696554749885347e-03  1.9306963625804066e-03  9.7064092468742151e-04  0.0000000000000000e+00  0.0000000000000000e+00  9.7620116302764108e-04  1.9417193656146531e-03  2.8859866621858809e-03  3.7986657565195659e-03  4.6697624365114668e-03  5.4897345442851729e-03  6.2495963397680276e-03  6.9410171323603569e-03  7.5564130823924380e-03  8.0890311149010592e-03  8.5330239457524666e-03  8.8835152964946065e-03  9.1366544707585148e-03  9.2896595815692429e-03  9.3408488542925244e-03  9.2896595815692290e-03  9.1366544707584887e-03  8.8835152964945735e-03  8.5330239457524285e-03  8.0890311149010245e-03  7.5564130823924077e-03  6.9410171323603317e-03  6.2495963397679963e-03  5.4897345442851435e-03  4.6697624365114408e-03  3.7986657565195450e-03  2.8859866621858648e-03  1.9417193656146422e-03  9.7620116302763599e-04  0.0000000000000000e+00  0.0000000000000000e+00  9.7064092468742574e-04  1.9306963625804155e-03  2.8696554749885472e-03  3.7772361962920536e-03  4.6434971665935141e-03  5.4589462064017196e-03  6.2146441944121817e-03  6.9023032285106135e-03  7.5143779789851534e-03  8.0441491846806722e-03  8.4857983004326554e-03  8.8344723799643650e-03  9.0863383739397743e-03  9.2386261382338946e-03  9.2896595815692359e-03  9.2388755320055253e-03  9.0868300647127323e-03  8.8351922044302630e-03  8.4867250898469828e-03  8.0452548584473600e-03  7.5156276739647560e-03  6.9036554698360302e-03  6.2160511172139922e-03  5.4603538425306609e-03  4.6448458159133359e-03  3.7784609077836200e-03  2.8706866677206916e-03  1.9314606191415500e-03  9.7106198831648709e-04  0.0000000000000000e+00  0.0000000000000000e+00  9.5444482869075115e-04  1.8985175199066296e-03  2.8218794274765379e-03  3.7144163130383308e-03  4.5663485549930433e-03  5.3683379412031197e-03  6.1115899222681271e-03  6.7879502239677767e-03  7.3899947478730252e-03  7.9111117312137390e-03  8.3455751939799788e-03  8.6886087755431302e-03  8.9364391564588780e-03  9.0863383739397709e-03  9.1366544707584974e-03  9.0868300647127358e-03  8.9374085856985200e-03  8.6900280954212098e-03  8.3474027757423561e-03  7.9132923403257560e-03  7.3924597854928224e-03  6.7906180454560504e-03  6.1143662506458274e-03  5.3711164030139360e-03  4.5690113774833237e-03  3.7168352337755284e-03  2.8239168784184609e-03  1.9000281545053974e-03  9.5527745926638321e-04  0.0000000000000000e+00  0.0000000000000000e+00  9.2779338907042269e-04  1.8455413853194910e-03  2.7431906086986166e-03  3.6109053003808185e-03  4.4391746109437233e-03  5.2189165451664290e-03  5.9415774692626461e-03  6.5992261112983704e-03  7.1846410172440459e-03  7.6913904667586632e-03  8.1139039078951189e-03  8.4475340414458065e-03  8.6886087755431284e-03  8.8344723799643546e-03  8.8835152964945839e-03  8.8351922044302682e-03  8.6900280954212150e-03  8.4496122749928657e-03  8.1165803743236883e-03  7.6945846200300542e-03  7.1882527668646603e-03  6.6031362439220613e-03  5.9456481955338161e-03  5.2229922108893954e-03  4.4430826299677760e-03  3.6144573870687791e-03  2.7461844074686899e-03  1.8477626086785544e-03  9.2901857744806656e-04  0.0000000000000000e+00  0.0000000000000000e+00  8.9098211110575677e-04  1.7723552303661417e-03  2.6344610522260662e-03  3.4678497835516362e-03  4.2633833518802055e-03  5.0123353688380458e-03  5.7064867976745924e-03  6.3382163027006291e-03  6.9005842908839701e-03  7.3874096958340034e-03  7.7933386062183562e-03  8.1139039078951189e-03  8.3455751939799892e-03  8.4857983004326433e-03  8.5330239457524423e-03  8.4867250898469949e-03  8.3474027757423647e-03  8.1165803743236935e-03  7.7967863119695830e-03  7.3915255188322258e-03  6.9052399868634214e-03  6.3432589672595139e-03  5.7117394633418705e-03  5.0175977844863174e-03  4.2684330180065939e-03  3.4724433481718576e-03  2.6383362047273768e-03  1.7752332577933871e-03  8.9257129277987607e-04  0.0000000000000000e+00  0.0000000000000000e+00  8.4441824571359573e-04  1.6797685911881844e-03  2.4968931244922464e-03  3.2868311487842358e-03  4.0409172021200019e-03  4.7508759486150727e-03  5.4089129494034093e-03  6.0078003552518694e-03  6.5409565945372698e-03  7.0025191664657540e-03  7.3874096958340043e-03  7.6913904667586632e-03  7.9111117312137356e-03  8.0441491846806584e-03  8.0890311149010366e-03  8.0452548584473704e-03  7.9132923403257664e-03  7.6945846200300611e-03  7.3915255188322301e-03  7.0074345529376122e-03  6.5465195409847628e-03  6.0138293882865184e-03  5.4151976710234756e-03  4.7571777490479509e-03  4.0469702246396268e-03  3.2923436357175234e-03  2.5015493251382055e-03  1.6832314620885405e-03  8.4633320624269350e-04  0.0000000000000000e+00  0.0000000000000000e+00  7.8861631871308827e-04  1.5688043672120546e-03  2.3320062730155513e-03  3.0698480668914117e-03  3.7742314673684541e-03  4.4374226583734485e-03  5.0521371494419674e-03  5.6116198453213017e-03  6.1097194794720979e-03  6.5409565945372707e-03  6.9005842908839744e-03  7.1846410172440485e-03  7.3899947478730157e-03  7.5143779789851326e-03  7.5564130823924163e-03  7.5156276739647612e-03  7.3924597854928336e-03  7.1882527668646673e-03  6.9052399868634257e-03  6.5465195409847663e-03  6.1160193093363104e-03  5.6184528333516727e-03  5.0592665939645700e-03  4.4445793742113309e-03  3.7811144749923566e-03  3.0761256234585008e-03  2.3373174685002245e-03  1.5727615951405813e-03  7.9080900519847290e-04  0.0000000000000000e+00  0.0000000000000000e+00  7.2419250838489854e-04  1.4406876191571138e-03  2.1416203360376087e-03  2.8192944654475954e-03  3.4662671870579532e-03  4.0754307270147345e-03  4.6400903370483236e-03  5.1540378184746667e-03  5.6116198453213043e-03  6.0078003552518737e-03  6.3382163027006361e-03  6.5992261112983721e-03  6.7879502239677741e-03  6.9023032285106013e-03  6.9410171323603395e-03  6.9036554698360389e-03  6.7906180454560608e-03  6.6031362439220691e-03  6.3432589672595225e-03  6.0138293882865210e-03  5.6184528333516745e-03  5.1614562230025115e-03  4.6478396046589817e-03  4.0832204052682914e-03  3.4737711141501473e-03  2.8261511772904604e-03  2.1474339442334165e-03  1.4450295548975802e-03  7.2660467799949601e-04  0.0000000000000000e+00  0.0000000000000000e+00  6.5185796774744169e-04  1.2968322486137964e-03  1.9278356678967999e-03  2.5379332652205925e-03  3.1204187353887978e-03  3.6688880451401437e-03  4.1773095984011651e-03  4.6400903370483184e-03  5.0521371494419631e-03  5.4089129494034093e-03  5.7064867976745941e-03  5.9415774692626435e-03  6.1115899222681210e-03  6.2146441944121679e-03  6.2495963397680085e-03  6.2160511172140000e-03  6.1143662506458352e-03  5.9456481955338231e-03  5.7117394633418792e-03  5.4151976710234764e-03  5.0592665939645743e-03  4.6478396046589817e-03  4.1854159743392200e-03  3.6770506002926089e-03  3.1282977987327309e-03  2.5451498743244570e-03  1.9339712455072966e-03  1.3014289692980744e-03  6.5442055977239875e-04  0.0000000000000000e+00  0.0000000000000000e+00  5.7241121821088360e-04  1.1388257897010457e-03  1.6930103889468543e-03  2.2288662523607056e-03  2.7404965999583576e-03  3.2222712471177231e-03  3.6688880451401428e-03  4.0754307270147302e-03  4.4374226583734433e-03  4.7508759486150683e-03  5.0123353688380414e-03  5.2189165451664221e-03  5.3683379412031110e-03  5.4589462064017031e-03  5.4897345442851513e-03  5.4603538425306696e-03  5.3711164030139447e-03  5.2229922108894024e-03  5.0175977844863244e-03  4.7571777490479552e-03  4.4445793742113361e-03  4.0832204052682949e-03  3.6770506002926102e-03  3.2305074593165862e-03  2.7484667002842787e-03  2.2361881049105113e-03  1.6992574344082184e-03  1.1435252091599910e-03  5.7504325518753117e-04  0.0000000000000000e+00  0.0000000000000000e+00  4.8672979032439863e-04  9.6841260977452675e-04  1.4397351287775975e-03  1.8955005064355940e-03  2.3306858099766863e-03  2.7404965999583571e-03  3.1204187353887965e-03  3.4662671870579489e-03  3.7742314673684494e-03  4.0409172021199967e-03  4.2633833518801994e-03  4.4391746109437172e-03  4.5663485549930346e-03  4.6434971665935010e-03  4.6697624365114468e-03  4.6448458159133411e-03  4.5690113774833280e-03  4.4430826299677812e-03  4.2684330180065991e-03  4.0469702246396311e-03  3.7811144749923613e-03  3.4737711141501495e-03  3.1282977987327322e-03  2.7484667002842774e-03  2.3384221721862194e-03  1.9026343884224852e-03  1.4458495391550679e-03  9.7303729407612603e-04  4.8933645468043766e-04  0.0000000000000000e+00  0.0000000000000000e+00  3.9576138590627179e-04  7.8747592362191630e-04  1.1708057008927269e-03  1.5415118392730109e-03  1.8955005064355953e-03  2.2288662523607060e-03  2.5379332652205907e-03  2.8192944654475906e-03  3.0698480668914065e-03  3.2868311487842311e-03  3.4678497835516323e-03  3.6109053003808124e-03  3.7144163130383217e-03  3.7772361962920414e-03  3.7986657565195498e-03  3.7784609077836243e-03  3.7168352337755318e-03  3.6144573870687821e-03  3.4724433481718611e-03  3.2923436357175273e-03  3.0761256234585060e-03  2.8261511772904630e-03  2.5451498743244