<?xml version="1.0"?>
<VTKFile type="UnstructuredGrid"  version="0.1"  >
<UnstructuredGrid>
<Piece  NumberOfPoints="961" NumberOfCells="1800">
<Points>
<DataArray  type="Float64"  NumberOfComponents="3"  format="ascii">-2 -2 0  -1.866666666666667 -2 0  -1.733333333333333 -2 0  -1.6 -2 0  -1.466666666666667 -2 0  -1.333333333333333 -2 0  -1.2 -2 0  -1.066666666666667 -2 0  -0.9333333333333333 -2 0  -0.8 -2 0  -0.6666666666666667 -2 0  -0.5333333333333334 -2 0  -0.3999999999999999 -2 0  -0.2666666666666666 -2 0  -0.1333333333333333 -2 0  0 -2 0  0.1333333333333333 -2 0  0.2666666666666666 -2 0  0.3999999999999999 -2 0  0.5333333333333332 -2 0  0.6666666666666665 -2 0  0.7999999999999998 -2 0  0.9333333333333331 -2 0  1.066666666666667 -2 0  1.2 -2 0  1.333333333333333 -2 0  1.466666666666667 -2 0  1.6 -2 0  1.733333333333333 -2 0  1.866666666666667 -2 0  2 -2 0  -2 -1.866666666666667 0  -1.866666666666667 -1.866666666666667 0  -1.733333333333333 -1.866666666666667 0  -1.6 -1.866666666666667 0  -1.466666666666667 -1.866666666666667 0  -1.333333333333333 -1.866666666666667 0  -1.2 -1.866666666666667 0  -1.066666666666667 -1.866666666666667 0  -0.9333333333333333 -1.866666666666667 0  -0.8 -1.866666666666667 0  -0.6666666666666667 -1.866666666666667 0  -0.5333333333333334 -1.866666666666667 0  -0.3999999999999999 -1.866666666666667 0  -0.2666666666666666 -1.866666666666667 0  -0.1333333333333333 -1.866666666666667 0  0 -1.866666666666667 0  0.1333333333333333 -1.866666666666667 0  0.2666666666666666 -1.866666666666667 0  0.3999999999999999 -1.866666666666667 0  0.5333333333333332 -1.866666666666667 0  0.6666666666666665 -1.866666666666667 0  0.7999999999999998 -1.866666666666667 0  0.9333333333333331 -1.866666666666667 0  1.066666666666667 -1.866666666666667 0  1.2 -1.866666666666667 0  1.333333333333333 -1.866666666666667 0  1.466666666666667 -1.866666666666667 0  1.6 -1.866666666666667 0  1.733333333333333 -1.866666666666667 0  1.866666666666667 -1.866666666666667 0  2 -1.866666666666667 0  -2 -1.733333333333333 0  -1.866666666666667 -1.733333333333333 0  -1.733333333333333 -1.733333333333333 0  -1.6 -1.733333333333333 0  -1.466666666666667 -1.733333333333333 0  -1.333333333333333 -1.733333333333333 0  -1.2 -1.733333333333333 0  -1.066666666666667 -1.733333333333333 0  -0.9333333333333333 -1.733333333333333 0  -0.8 -1.733333333333333 0  -0.6666666666666667 -1.733333333333333 0  -0.5333333333333334 -1.733333333333333 0  -0.3999999999999999 -1.733333333333333 0  -0.2666666666666666 -1.733333333333333 0  -0.1333333333333333 -1.733333333333333 0  0 -1.733333333333333 0  0.1333333333333333 -1.733333333333333 0  0.2666666666666666 -1.733333333333333 0  0.3999999999999999 -1.733333333333333 0  0.5333333333333332 -1.733333333333333 0  0.6666666666666665 -1.733333333333333 0  0.7999999999999998 -1.733333333333333 0  0.9333333333333331 -1.733333333333333 0  1.066666666666667 -1.733333333333333 0  1.2 -1.733333333333333 0  1.333333333333333 -1.733333333333333 0  1.466666666666667 -1.733333333333333 0  1.6 -1.733333333333333 0  1.733333333333333 -1.733333333333333 0  1.866666666666667 -1.733333333333333 0  2 -1.733333333333333 0  -2 -1.6 0  -1.866666666666667 -1.6 0  -1.733333333333333 -1.6 0  -1.6 -1.6 0  -1.466666666666667 -1.6 0  -1.333333333333333 -1.6 0  -1.2 -1.6 0  -1.066666666666667 -1.6 0  -0.9333333333333333 -1.6 0  -0.8 -1.6 0  -0.6666666666666667 -1.6 0  -0.5333333333333334 -1.6 0  -0.3999999999999999 -1.6 0  -0.2666666666666666 -1.6 0  -0.1333333333333333 -1.6 0  0 -1.6 0  0.1333333333333333 -1.6 0  0.2666666666666666 -1.6 0  0.3999999999999999 -1.6 0  0.5333333333333332 -1.6 0  0.6666666666666665 -1.6 0  0.7999999999999998 -1.6 0  0.9333333333333331 -1.6 0  1.066666666666667 -1.6 0  1.2 -1.6 0  1.333333333333333 -1.6 0  1.466666666666667 -1.6 0  1.6 -1.6 0  1.733333333333333 -1.6 0  1.866666666666667 -1.6 0  2 -1.6 0  -2 -1.466666666666667 0  -1.866666666666667 -1.466666666666667 0  -1.733333333333333 -1.466666666666667 0  -1.6 -1.466666666666667 0  -1.466666666666667 -1.466666666666667 0  -1.333333333333333 -1.466666666666667 0  -1.2 -1.466666666666667 0  -1.066666666666667 -1.466666666666667 0  -0.9333333333333333 -1.466666666666667 0  -0.8 -1.466666666666667 0  -0.6666666666666667 -1.466666666666667 0  -0.5333333333333334 -1.466666666666667 0  -0.3999999999999999 -1.466666666666667 0  -0.2666666666666666 -1.466666666666667 0  -0.1333333333333333 -1.466666666666667 0  0 -1.466666666666667 0  0.1333333333333333 -1.466666666666667 0  0.2666666666666666 -1.466666666666667 0  0.3999999999999999 -1.466666666666667 0  0.5333333333333332 -1.466666666666667 0  0.6666666666666665 -1.466666666666667 0  0.7999999999999998 -1.466666666666667 0  0.9333333333333331 -1.466666666666667 0  1.066666666666667 -1.466666666666667 0  1.2 -1.466666666666667 0  1.333333333333333 -1.466666666666667 0  1.466666666666667 -1.466666666666667 0  1.6 -1.466666666666667 0  1.733333333333333 -1.466666666666667 0  1.866666666666667 -1.466666666666667 0  2 -1.466666666666667 0  -2 -1.333333333333333 0  -1.866666666666667 -1.333333333333333 0  -1.733333333333333 -1.333333333333333 0  -1.6 -1.333333333333333 0  -1.466666666666667 -1.333333333333333 0  -1.333333333333333 -1.333333333333333 0  -1.2 -1.333333333333333 0  -1.066666666666667 -1.333333333333333 0  -0.9333333333333333 -1.333333333333333 0  -0.8 -1.333333333333333 0  -0.6666666666666667 -1.333333333333333 0  -0.5333333333333334 -1.333333333333333 0  -0.3999999999999999 -1.333333333333333 0  -0.2666666666666666 -1.333333333333333 0  -0.1333333333333333 -1.333333333333333 0  0 -1.333333333333333 0  0.1333333333333333 -1.333333333333333 0  0.2666666666666666 -1.333333333333333 0  0.3999999999999999 -1.333333333333333 0  0.5333333333333332 -1.333333333333333 0  0.6666666666666665 -1.333333333333333 0  0.7999999999999998 -1.333333333333333 0  0.9333333333333331 -1.333333333333333 0  1.066666666666667 -1.333333333333333 0  1.2 -1.333333333333333 0  1.333333333333333 -1.333333333333333 0  1.466666666666667 -1.333333333333333 0  1.6 -1.333333333333333 0  1.733333333333333 -1.333333333333333 0  1.866666666666667 -1.333333333333333 0  2 -1.333333333333333 0  -2 -1.2 0  -1.866666666666667 -1.2 0  -1.733333333333333 -1.2 0  -1.6 -1.2 0  -1.466666666666667 -1.2 0  -1.333333333333333 -1.2 0  -1.2 -1.2 0  -1.066666666666667 -1.2 0  -0.9333333333333333 -1.2 0  -0.8 -1.2 0  -0.6666666666666667 -1.2 0  -0.5333333333333334 -1.2 0  -0.3999999999999999 -1.2 0  -0.2666666666666666 -1.2 0  -0.1333333333333333 -1.2 0  0 -1.2 0  0.1333333333333333 -1.2 0  0.2666666666666666 -1.2 0  0.3999999999999999 -1.2 0  0.5333333333333332 -1.2 0  0.6666666666666665 -1.2 0  0.7999999999999998 -1.2 0  0.9333333333333331 -1.2 0  1.066666666666667 -1.2 0  1.2 -1.2 0  1.333333333333333 -1.2 0  1.466666666666667 -1.2 0  1.6 -1.2 0  1.733333333333333 -1.2 0  1.866666666666667 -1.2 0  2 -1.2 0  -2 -1.066666666666667 0  -1.866666666666667 -1.066666666666667 0  -1.733333333333333 -1.066666666666667 0  -1.6 -1.066666666666667 0  -1.466666666666667 -1.066666666666667 0  -1.333333333333333 -1.066666666666667 0  -1.2 -1.066666666666667 0  -1.066666666666667 -1.066666666666667 0  -0.9333333333333333 -1.066666666666667 0  -0.8 -1.066666666666667 0  -0.6666666666666667 -1.066666666666667 0  -0.5333333333333334 -1.066666666666667 0  -0.3999999999999999 -1.066666666666667 0  -0.2666666666666666 -1.066666666666667 0  -0.1333333333333333 -1.066666666666667 0  0 -1.066666666666667 0  0.1333333333333333 -1.066666666666667 0  0.2666666666666666 -1.066666666666667 0  0.3999999999999999 -1.066666666666667 0  0.5333333333333332 -1.066666666666667 0  0.6666666666666665 -1.066666666666667 0  0.7999999999999998 -1.066666666666667 0  0.9333333333333331 -1.066666666666667 0  1.066666666666667 -1.066666666666667 0  1.2 -1.066666666666667 0  1.333333333333333 -1.066666666666667 0  1.466666666666667 -1.066666666666667 0  1.6 -1.066666666666667 0  1.733333333333333 -1.066666666666667 0  1.866666666666667 -1.066666666666667 0  2 -1.066666666666667 0  -2 -0.9333333333333333 0  -1.866666666666667 -0.9333333333333333 0  -1.733333333333333 -0.9333333333333333 0  -1.6 -0.9333333333333333 0  -1.466666666666667 -0.9333333333333333 0  -1.333333333333333 -0.9333333333333333 0  -1.2 -0.9333333333333333 0  -1.066666666666667 -0.9333333333333333 0  -0.9333333333333333 -0.9333333333333333 0  -0.8 -0.9333333333333333 0  -0.6666666666666667 -0.9333333333333333 0  -0.5333333333333334 -0.9333333333333333 0  -0.3999999999999999 -0.9333333333333333 0  -0.2666666666666666 -0.9333333333333333 0  -0.1333333333333333 -0.9333333333333333 0  0 -0.9333333333333333 0  0.1333333333333333 -0.9333333333333333 0  0.2666666666666666 -0.9333333333333333 0  0.3999999999999999 -0.9333333333333333 0  0.5333333333333332 -0.9333333333333333 0  0.6666666666666665 -0.9333333333333333 0  0.7999999999999998 -0.9333333333333333 0  0.9333333333333331 -0.9333333333333333 0  1.066666666666667 -0.9333333333333333 0  1.2 -0.9333333333333333 0  1.333333333333333 -0.9333333333333333 0  1.466666666666667 -0.9333333333333333 0  1.6 -0.9333333333333333 0  1.733333333333333 -0.9333333333333333 0  1.866666666666667 -0.9333333333333333 0  2 -0.9333333333333333 0  -2 -0.8 0  -1.866666666666667 -0.8 0  -1.733333333333333 -0.8 0  -1.6 -0.8 0  -1.466666666666667 -0.8 0  -1.333333333333333 -0.8 0  -1.2 -0.8 0  -1.066666666666667 -0.8 0  -0.9333333333333333 -0.8 0  -0.8 -0.8 0  -0.6666666666666667 -0.8 0  -0.5333333333333334 -0.8 0  -0.3999999999999999 -0.8 0  -0.2666666666666666 -0.8 0  -0.1333333333333333 -0.8 0  0 -0.8 0  0.1333333333333333 -0.8 0  0.2666666666666666 -0.8 0  0.3999999999999999 -0.8 0  0.5333333333333332 -0.8 0  0.6666666666666665 -0.8 0  0.7999999999999998 -0.8 0  0.9333333333333331 -0.8 0  1.066666666666667 -0.8 0  1.2 -0.8 0  1.333333333333333 -0.8 0  1.466666666666667 -0.8 0  1.6 -0.8 0  1.733333333333333 -0.8 0  1.866666666666667 -0.8 0  2 -0.8 0  -2 -0.6666666666666667 0  -1.866666666666667 -0.
[...]
<PointData  Scalars="f_1363"> 
<DataArray  type="Float64"  Name="f_1363"  format="ascii">0.0000000000000000e+00  0.0000000000000000e+00  0.0000000000000000e+00  0.0000000000000000e+00  0.0000000000000000e+00  0.0000000000000000e+00  0.0000000000000000e+00  0.0000000000000000e+00  0.0000000000000000e+00  0.0000000000000000e+00  0.0000000000000000e+00  0.0000000000000000e+00  0.0000000000000000e+00  0.0000000000000000e+00  0.0000000000000000e+00  0.0000000000000000e+00  0.0000000000000000e+00  0.0000000000000000e+00  0.0000000000000000e+00  0.0000000000000000e+00  0.0000000000000000e+00  0.0000000000000000e+00  0.0000000000000000e+00  0.0000000000000000e+00  0.0000000000000000e+00  0.0000000000000000e+00  0.0000000000000000e+00  0.0000000000000000e+00  0.0000000000000000e+00  0.0000000000000000e+00  0.0000000000000000e+00  0.0000000000000000e+00  3.9390244083011033e-04  7.8347722005665018e-04  1.1652402581839017e-03  1.5355464006272411e-03  1.8906660368182341e-03  2.2268283068445139e-03  2.5402662628004539e-03  2.8272746291461430e-03  3.0842820499389118e-03  3.3079356048678257e-03  3.4951929733542894e-03  3.6434161668898197e-03  3.7504600587647745e-03  3.8147489772280378e-03  3.8353353517286688e-03  3.8119357279802640e-03  3.7449412607966702e-03  3.6354018750605283e-03  3.4849854485051288e-03  3.2959154023462370e-03  3.0708917901155386e-03  2.8130021913127527e-03  2.5256293402152381e-03  2.2123624180957870e-03  1.8769183647871224e-03  1.5230786045618296e-03  1.1546456563051569e-03  7.7542429095373694e-04  3.8923649267881718e-04  0.0000000000000000e+00  0.0000000000000000e+00  7.8347722005665018e-04  1.5587149812253558e-03  2.3185386136893578e-03  3.0556189572072457e-03  3.7625078821506555e-03  4.4316910559053773e-03  5.0556672956582130e-03  5.6270597270332290e-03  6.1387580183600039e-03  6.5840859101865745e-03  6.9569843893280935e-03  7.2521982365653615e-03  7.4654523929623233e-03  7.5936046910197973e-03  7.6347629436284920e-03  7.5883570235032770e-03  7.4551601350482727e-03  7.2372576256986322e-03  6.9379659947065757e-03  6.5617088098342442e-03  6.1138596425681100e-03  5.6005645585916700e-03  5.0285579378935982e-03  4.4049853666903484e-03  3.7372461106420446e-03  3.0328654801064347e-03  2.2994046508002133e-03  1.5444128043779349e-03  7.7542429095373716e-04  0.0000000000000000e+00  0.0000000000000000e+00  1.1652402581839021e-03  2.3185386136893582e-03  3.4490671481626611e-03  4.5458502935687801e-03  5.5977740443846945e-03  6.5936428144391162e-03  7.5222875241937048e-03  8.3727263437472187e-03  9.1343741054583233e-03  9.7972905479060228e-03  1.0352452499067388e-02  1.0792031493266820e-02  1.1109656516981968e-02  1.1300641769797670e-02  1.1362161492743984e-02  1.1293357848781761e-02  1.1095373155642185e-02  1.0771303946626599e-02  1.0326080760894273e-02  9.7662836086879982e-03  9.0999081297768389e-03  8.3361010812543074e-03  7.4848856252108086e-03  6.5568967976787898e-03  5.5631455883861343e-03  4.5148264944326567e-03  3.4231786110664538e-03  2.2994046508002138e-03  1.1546456563051573e-03  0.0000000000000000e+00  0.0000000000000000e+00  1.5355464006272419e-03  3.0556189572072479e-03  4.5458502935687810e-03  5.9917175998653463e-03  7.3785402218794508e-03  8.6915431250515970e-03  9.9159922012793077e-03  1.1037402032613075e-02  1.2041809695592333e-02  1.2916100918714127e-02  1.3648368555691064e-02  1.4228278741100019e-02  1.4647417800170421e-02  1.4899593267894964e-02  1.4981065239741072e-02  1.4890689467040823e-02  1.4629960626191022e-02  1.4202952345690705e-02  1.3616159065454133e-02  1.2878252792829531e-02  1.1999774528722246e-02  1.0992784921148113e-02  9.8705011200624065e-03  8.6469466568545733e-03  7.3366385091822766e-03  5.9543306225105803e-03  4.5148264944326584e-03  3.0328654801064369e-03  1.5230786045618309e-03  0.0000000000000000e+00  0.0000000000000000e+00  1.8906660368182354e-03  3.7625078821506598e-03  5.5977740443846980e-03  7.3785402218794526e-03  9.0867017554401106e-03  1.0704046059388506e-02  1.2212414629989203e-02  1.3593955761404332e-02  1.4831459866832052e-02  1.5908760268974229e-02  1.6811174547857514e-02  1.7525955919888266e-02  1.8042721320928143e-02  1.8353823224712944e-02  1.8454635762663707e-02  1.8343732109819978e-02  1.8022938755064749e-02  1.7497262338265138e-02  1.6774695222097256e-02  1.5865915839531623e-02  1.4783908152998409e-02  1.3543530478650985e-02  1.2161066916408787e-02  1.0653794428877495e-02  9.0395952882629926e-03  7.3366385091822792e-03  5.5631455883861378e-03  3.7372461106420472e-03  1.8769183647871243e-03  0.0000000000000000e+00  0.0000000000000000e+00  2.2268283068445169e-03  4.4316910559053842e-03  6.5936428144391223e-03  8.6915431250516022e-03  1.0704046059388508e-02  1.2609682536017002e-02  1.4387048210563870e-02  1.6015098908977354e-02  1.7473544229655146e-02  1.8743319099008761e-02  1.9807103829039913e-02  2.0649856580305145e-02  2.1259318814924256e-02  2.1626454732886654e-02  2.1745789841806539e-02  2.1615621350960557e-02  2.1238083289492646e-02  2.0619061132273412e-02  1.9767963106304375e-02  1.8697367025204376e-02  1.7422571315402122e-02  1.5961085907036252e-02  1.4332102208125690e-02  1.2555981157511184e-02  1.0653794428877495e-02  8.6469466568545768e-03  6.5568967976787950e-03  4.4049853666903518e-03  2.2123624180957887e-03  0.0000000000000000e+00  0.0000000000000000e+00  2.5402662628004596e-03  5.0556672956582269e-03  7.5222875241937196e-03  9.9159922012793215e-03  1.2212414629989204e-02  1.4387048210563870e-02  1.6415458787866676e-02  1.8273620084832878e-02  1.9938361785322614e-02  2.1387907281085788e-02  2.2602467451069200e-02  2.3564849190223745e-02  2.4261033570901928e-02  2.4680678953840900e-02  2.4817509091143511e-02  2.4669554866144132e-02  2.4239229979146751e-02  2.3533234478902772e-02  2.2562294220801898e-02  2.1340757706539856e-02  1.9886083015261898e-02  1.8218255584509045e-02  1.6359181685276475e-02  1.4332102208125686e-02  1.2161066916408784e-02  9.8705011200624117e-03  7.4848856252108086e-03  5.0285579378935973e-03  2.5256293402152376e-03  0.0000000000000000e+00  0.0000000000000000e+00  2.8272746291461491e-03  5.6270597270332437e-03  8.3727263437472360e-03  1.1037402032613088e-02  1.3593955761404340e-02  1.6015098908977354e-02  1.8273620084832874e-02  2.0342757272434737e-02  2.2196695927216778e-02  2.3811167556591382e-02  2.5164111351225253e-02  2.6236352837259710e-02  2.7012249188072011e-02  2.7480251272212389e-02  2.7633337748468951e-02  2.7469286089718593e-02  2.6990758417061479e-02  2.6205195189967376e-02  2.5124525635320489e-02  2.3764718747047837e-02  2.2145211282020891e-02  2.0288258198586765e-02  1.8218255584509034e-02  1.5961085907036234e-02  1.3543530478650968e-02  1.0992784921148102e-02  8.3361010812543004e-03  5.6005645585916640e-03  2.8130021913127488e-03  0.0000000000000000e+00  0.0000000000000000e+00  3.0842820499389170e-03  6.1387580183600151e-03  9.1343741054583406e-03  1.2041809695592348e-02  1.4831459866832071e-02  1.7473544229655160e-02  1.9938361785322625e-02  2.2196695927216781e-02  2.4220357398656165e-02  2.5982837533183274e-02  2.7460030960690555e-02  2.8630977495306135e-02  2.9478568125071478e-02  2.9990160448385775e-02  3.0158054580702236e-02  2.9979790987664554e-02  2.9458245898663117e-02  2.8601516536281752e-02  2.7422605731129625e-02  2.5938931868688862e-02  2.4171703927785837e-02  2.2145211282020901e-02  1.9886083015261898e-02  1.7422571315402112e-02  1.4783908152998395e-02  1.1999774528722246e-02  9.0999081297768354e-03  6.1138596425681082e-03  3.0708917901155382e-03  0.0000000000000000e+00  0.0000000000000000e+00  3.3079356048678326e-03  6.5840859101865849e-03  9.7972905479060401e-03  1.2916100918714144e-02  1.5908760268974250e-02  1.8743319099008775e-02  2.1387907281085802e-02  2.3811167556591392e-02  2.5982837533183274e-02  2.7874450613476501e-02  2.9460112105093538e-02  3.0717296524434161e-02  3.1627606889170455e-02  3.2177437192363538e-02  3.2358485304315981e-02  3.2168074724706730e-02  3.1609258847701202e-02  3.0690699223756140e-02  2.9426327950352417e-02  2.7834821960270546e-02  2.5938931868688866e-02  2.3764718747047851e-02  2.1340757706539867e-02  1.8697367025204376e-02  1.5865915839531623e-02  1.2878252792829533e-02  9.7662836086879999e-03  6.5617088098342460e-03  3.2959154023462370e-03  0.0000000000000000e+00  0.0000000000000000e+00  3.4951929733542959e-03  6.9569843893281039e-03  1.0352452499067404e-02  1.3648368555691077e-02  1.6811174547857528e-02  1.9807103829039927e-02  2.2602467451069225e-02  2.5164111351225264e-02  2.7460030960690555e-02  2.9460112105093531e-02  3.1136952007500614e-02  3.2466703308221406e-02  3.3429878429397555e-02  3.4012051971821070e-02  3.4204405185405733e-02  3.4004068345527577e-02  3.3414232977785660e-02  3.2444024736272399e-02  3.1108147499131423e-02  2.9426327950352413e-02  2.7422605731129632e-02  2.5124525635320513e-02  2.2562294220801912e-02  1.9767963106304399e-02  1.6774695222097263e-02  1.3616159065454140e-02  1.0326080760894283e-02  6.9379659947065835e-03  3.4849854485051305e-03  0.0000000000000000e+00  0.0000000000000000e+00  3.6434161668898249e-03  7.2521982365653720e-03  1.0792031493266832e-02  1.4228278741100038e-02  1.7525955919888286e-02  2.0649856580305163e-02  2.3564849190223759e-02  2.6236352837259717e-02  2.8630977495306138e-02  3.0717296524434144e-02  3.2466703308221399e-02  3.3854292501132525e-02  3.4859700463179204e-02  3.5467839770981988e-02  3.5669469271302358e-02  3.5461553409211130e-02  3.4847381356801509e-02  3.3836436156301074e-02  3.2444024736272385e-02  3.0690699223756137e-02  2.8601516536281756e-02  2.6205195189967383e-02  2.3533234478902761e-02  2.0619061132273398e-02  1.7497262338265134e-02  1.4202952345690703e-02  1.0771303946626608e-02  7.2372576256986357e-03  3.6354018750605296e-03  0.0000000000000000e+00  0.0000000000000000e+00  3.7504600587647805e-03  7.4654523929623337e-03  1.1109656516981984e-02  1.4647417800170448e-02  1.8042721320928157e-02  2.1259318814924277e-02  2.4261033570901931e-02  2.7012249188072011e-02  2.9478568125071478e-02  3.1627606889170434e-02  3.3429878429397548e-02  3.4859700463179231e-02  3.5896062328191515e-02  3.6523383208345091e-02  3.6732101302081710e-02  3.6519046095784782e-02  3.5887563183545773e-02  3.4847381356801467e-02  3.3414232977785618e-02  3.1609258847701167e-02  2.9458245898663100e-02  2.6990758417061465e-02  2.4239229979146727e-02  2.1238083289492605e-02  1.8022938755064718e-02  1.4629960626191001e-02  1.1095373155642178e-02  7.4551601350482674e-03  3.7449412607966676e-03  0.0000000000000000e+00  0.0000000000000000e+00  3.8147489772280478e-03  7.5936046910198111e-03  1.1300641769797698e-02  1.4899593267894995e-02  1.8353823224712979e-02  2.1626454732886685e-02  2.4680678953840924e-02  2.7480251272212406e-02  2.9990160448385775e-02  3.2177437192363545e-02  3.4012051971821083e-02  3.5467839770982015e-02  3.6523383208345112e-02  3.7162785618840892e-02  3.7376272485333616e-02  3.7160572375477159e-02  3.6519046095784741e-02  3.5461553409211061e-02  3.4004068345527501e-02  3.2168074724706661e-02  2.9979790987664505e-02  2.7469286089718555e-02  2.4669554866144069e-02  2.1615621350960502e-02  1.8343732109819925e-02  1.4890689467040792e-02  1.1293357848781750e-02  7.5883570235032657e-03  3.8119357279802579e-03  0.0000000000000000e+00  0.0000000000000000e+00  3.8353353517286779e-03  7.6347629436285076e-03  1.1362161492744011e-02  1.4981065239741109e-02  1.8454635762663752e-02  2.1745789841806588e-02  2.4817509091143556e-02  2.7633337748468979e-02  3.0158054580702271e-02  3.2358485304316023e-02  3.4204405185405760e-02  3.5669469271302372e-02  3.6732101302081745e-02  3.7376272485333650e-02  3.7592108074650424e-02  3.7376272485333588e-02  3.6732101302081641e-02  3.5669469271302240e-02  3.4204405185405601e-02  3.2358485304315891e-02  3.0158054580702157e-02  2.7633337748468881e-02  2.4817509091143452e-02  2.1745789841806473e-02  1.8454635762663634e-02  1.4981065239741024e-02  1.1362161492743947e-02  7.6347629436284668e-03  3.8353353517286580e-03  0.0000000000000000e+00  0.0000000000000000e+00  3.8119357279802757e-03  7.5883570235033039e-03  1.1293357848781804e-02  1.4890689467040861e-02  1.8343732109820016e-02  2.1615621350960599e-02  2.4669554866144167e-02  2.7469286089718645e-02  2.9979790987664626e-02  3.2168074724706779e-02  3.4004068345527626e-02  3.5461553409211179e-02  3.6519046095784824e-02  3.7160572375477201e-02  3.7376272485333616e-02  3.7162785618840836e-02  3.6523383208344994e-02  3.5467839770981870e-02  3.4012051971820910e-02  3.2177437192363406e-02  2.9990160448385660e-02  2.7480251272212316e-02  2.4680678953840820e-02  2.1626454732886560e-02  1.8353823224712858e-02  1.4899593267894903e-02  1.1300641769797630e-02  7.5936046910197695e-03  3.8147489772280257e-03  0.0000000000000000e+00  0.0000000000000000e+00  3.7449412607966806e-03  7.4551601350482943e-03  1.1095373155642222e-02  1.4629960626191058e-02  1.8022938755064791e-02  2.1238083289492674e-02  2.4239229979146786e-02  2.6990758417061517e-02  2.9458245898663169e-02  3.1609258847701258e-02  3.3414232977785695e-02  3.4847381356801564e-02  3.5887563183545836e-02  3.6519046095784796e-02  3.6732101302081689e-02  3.6523383208345021e-02  3.5896062328191397e-02  3.4859700463179065e-02  3.3429878429397389e-02  3.1627606889170302e-02  2.9478568125071349e-02  2.7012249188071904e-02  2.4261033570901806e-02  2.1259318814924141e-02  1.8042721320928042e-02  1.4647417800170356e-02  1.1109656516981915e-02  7.4654523929622851e-03  3.7504600587647567e-03  0.0000000000000000e+00  0.0000000000000000e+00  3.6354018750605387e-03  7.2372576256986522e-03  1.0771303946626636e-02  1.4202952345690741e-02  1.7497262338265172e-02  2.0619061132273447e-02  2.3533234478902793e-02  2.6205195189967410e-02  2.8601516536281790e-02  3.0690699223756192e-02  3.2444024736272468e-02  3.3836436156301143e-02  3.4847381356801557e-02  3.5461553409211130e-02  3.5669469271302302e-02  3.5467839770981897e-02  3.4859700463179093e-02  3.3854292501132380e-02  3.2466703308221219e-02  3.0717296524433980e-02  2.8630977495305982e-02  2.6236352837259592e-02  2.3564849190223613e-02  2.0649856580305027e-02  1.7525955919888165e-02  1.4228278741099939e-02  1.0792031493266751e-02  7.2521982365653156e-03  3.6434161668897967e-03  0.0000000000000000e+00  0.0000000000000000e+00  3.4849854485051387e-03  6.9379659947065957e-03  1.0326080760894300e-02  1.3616159065454164e-02  1.6774695222097291e-02  1.9767963106304427e-02  2.2562294220801925e-02  2.5124525635320506e-02  2.7422605731129653e-02  2.9426327950352466e-02  3.1108147499131506e-02  3.2444024736272475e-02  3.3414232977785729e-02  3.4004068345527577e-02  3.4204405185405670e-02  3.4012051971820972e-02  3.3429878429397424e-02  3.2466703308221240e-02  3.1136952007500444e-02  2.9460112105093375e-02  2.7460030960690412e-02  2.5164111351225135e-02  2.2602467451069072e-02  1.9807103829039798e-02  1.6811174547857417e-02  1.3648368555690986e-02  1.0352452499067320e-02  6.9569843893280440e-03  3.4951929733542664e-03  0.0000000000000000e+00  0.0000000000000000e+00  3.2959154023462461e-03  6.5617088098342624e-03  9.7662836086880173e-03  1.2878252792829557e-02  1.5865915839531657e-02  1.8697367025204407e-02  2.1340757706539884e-02  2.3764718747047865e-02  2.5938931868688894e-02  2.7834821960270591e-02  2.9426327950352479e-02  3.0690699223756199e-02  3.1609258847701258e-02  3.2168074724706737e-02  3.2358485304315947e-02  3.2177437192363455e-02  3.1627606889170330e-02  3.0717296524434008e-02  2.9460112105093385e-02  2.7874450613476352e-02  2.5982837533183149e-02  2.3811167556591281e-02  2.1387907281085684e-02  1.8743319099008653e-02  1.5908760268974139e-02  1.2916100918714054e-02  9.7972905479059690e-03  6.5840859101865355e-03  3.3079356048678066e-03  0.0000000000000000e+00  0.0000000000000000e+00  3.0708917901155473e-03  6.1138596425681264e-03  9.0999081297768580e-03  1.1999774528722272e-02  1.4783908152998430e-02  1.7422571315402133e-02  1.9886083015261912e-02  2.2145211282020908e-02  2.4171703927785854e-02  2.5938931868688907e-02  2.7422605731129656e-02  2.8601516536281787e-02  2.9458245898663134e-02  2.9979790987664557e-02  3.0158054580702212e-02  2.9990160448385695e-02  2.9478568125071394e-02  2.8630977495306034e-02  2.7460030960690444e-02  2.5982837533183159e-02  2.4220357398656061e-02  2.2196695927216695e-02  1.9938361785322524e-02  1.7473544229655049e-02  1.4831459866831972e-02  1.2041809695592265e-02  9.1343741054582782e-03  6.1387580183599726e-03  3.0842820499388957e-03  0.0000000000000000e+00  0.0000000000000000e+00  2.8130021913127575e-03  5.6005645585916813e-03  8.3361010812543230e-03  1.0992784921148128e-02  1.3543530478650994e-02  1.5961085907036262e-02  1.8218255584509058e-02  2.0288258198586789e-02  2.2145211282020922e-02  2.3764718747047879e-02  2.5124525635320524e-02  2.6205195189967414e-02  2.6990758417061507e-02  2.7469286089718610e-02  2.7633337748468944e-02  2.7480251272212357e-02  2.7012249188071963e-02  2.6236352837259638e-02  2.5164111351225173e-02  2.3811167556591302e-02  2.2196695927216698e-02  2.0342757272434675e-02  1.8273620084832794e-02  1.6015098908977267e-02  1.3593955761404257e-02  1.1037402032613020e-02  8.3727263437471857e-03  5.6270597270332064e-03  2.8272746291461304e-03  0.0000000000000000e+00  0.0000000000000000e+00  2.5256293402152424e-03  5.0285579378936069e-03  7.4848856252108199e-03  9.8705011200624221e-03  1.2161066916408796e-02  1.4332102208125698e-02  1.6359181685276485e-02  1.8218255584509041e-02  1.9886083015261902e-02  2.1340757706539877e-02  2.2562294220801925e-02  2.3533234478902789e-02  2.4239229979146772e-02  2.4669554866144125e-02  2.4817509091143507e-02  2.4680678953840865e-02  2.4261033570901872e-02  2.3564849190223666e-02  2.2602467451069124e-02  2.1387907281085708e-02  1.9938361785322541e-02  1.8273620084832798e-02  1.6415458787866589e-02  1.4387048210563785e-02  1.2212414629989130e-02  9.9159922012792556e-03  7.5222875241936693e-03  5.0556672956581904e-03  2.5402662628004409e-03  0.0000000000000000e+00  0.0000000000000000e+00  2.2123624180957900e-03  4.4049853666903553e-03  6.5568967976787976e-03  8.6469466568545802e-03  1.0653794428877502e-02  1.2555981157511192e-02  1.4332102208125691e-02  1.5961085907036241e-02  1.7422571315402112e-02  1.8697367025204383e-02  1.9767963106304409e-02  2.0619061132273419e-02  2.1238083289492646e-02  2.1615621350960547e-02  2.1745789841806518e-02  2.1626454732886609e-02  2.1259318814924193e-02  2.0649856580305076e-02  1.9807103829039836e-02  1.8743319099008681e-02  1.7473544229655077e-02  1.6015098908977281e-02  1.4387048210563793e-02  1.2609682536016933e-02  1.0704046059388442e-02  8.6915431250515450e-03  6.5936428144390798e-03  4.4316910559053522e-03  2.2268283068445005e-03  0.0000000000000000e+00  0.0000000000000000e+00  1.8769183647871250e-03  3.7372461106420481e-03  5.5631455883861413e-03  7.3366385091822844e-03  9.0395952882629960e-03  1.0653794428877502e-02  1.2161066916408786e-02  1.3543530478650971e-02  1.4783908152998401e-02  1.5865915839531630e-02  1.6774695222097270e-02  1.7497262338265152e-02  1.8022938755064749e-02  1.8343732109819971e-02  1.8454635762663686e-02  1.8353823224712899e-02  1.8042721320928087e-02  1.7525955919888200e-02  1.6811174547857442e-02  1.5908760268974163e-02  1.4831459866831993e-02  1.3593955761404271e-02  1.2212414629989137e-02  1.0704046059388444e-02  9.0867017554400568e-03  7.3785402218794075e-03  5.5977740443846624e-03  3.7625078821506338e-03  1.8906660368182206e-03  0.0000000000000000e+00  0.0000000000000000e+00  1.5230786045618316e-03  3.0328654801064382e-03  4.5148264944326610e-03  5.9543306225105855e-03  7.3366385091822878e-03  8.6469466568545802e-03  9.8705011200624065e-03  1.0992784921148106e-02  1.1999774528722246e-02  1.2878252792829540e-02  1.3616159065454152e-02  1.4202952345690720e-02  1.4629960626191027e-02  1.4890689467040820e-02  1.4981065239741057e-02  1.4899593267894938e-02  1.4647417800170388e-02  1.4228278741099965e-02  1.3648368555691006e-02  1.2916100918714079e-02  1.2041809695592291e-02  1.1037402032613034e-02  9.9159922012792