<?xml version="1.0"?>
<VTKFile type="UnstructuredGrid"  version="0.1"  >
<UnstructuredGrid>
<Piece  NumberOfPoints="961" NumberOfCells="1800">
<Points>
<DataArray  type="Float64"  NumberOfComponents="3"  format="ascii">-2 -2 0  -1.866666666666667 -2 0  -1.733333333333333 -2 0  -1.6 -2 0  -1.466666666666667 -2 0  -1.333333333333333 -2 0  -1.2 -2 0  -1.066666666666667 -2 0  -0.9333333333333333 -2 0  -0.8 -2 0  -0.6666666666666667 -2 0  -0.5333333333333334 -2 0  -0.3999999999999999 -2 0  -0.2666666666666666 -2 0  -0.1333333333333333 -2 0  0 -2 0  0.1333333333333333 -2 0  0.2666666666666666 -2 0  0.3999999999999999 -2 0  0.5333333333333332 -2 0  0.6666666666666665 -2 0  0.7999999999999998 -2 0  0.9333333333333331 -2 0  1.066666666666667 -2 0  1.2 -2 0  1.333333333333333 -2 0  1.466666666666667 -2 0  1.6 -2 0  1.733333333333333 -2 0  1.866666666666667 -2 0  2 -2 0  -2 -1.866666666666667 0  -1.866666666666667 -1.866666666666667 0  -1.733333333333333 -1.866666666666667 0  -1.6 -1.866666666666667 0  -1.466666666666667 -1.866666666666667 0  -1.333333333333333 -1.866666666666667 0  -1.2 -1.866666666666667 0  -1.066666666666667 -1.866666666666667 0  -0.9333333333333333 -1.866666666666667 0  -0.8 -1.866666666666667 0  -0.6666666666666667 -1.866666666666667 0  -0.5333333333333334 -1.866666666666667 0  -0.3999999999999999 -1.866666666666667 0  -0.2666666666666666 -1.866666666666667 0  -0.1333333333333333 -1.866666666666667 0  0 -1.866666666666667 0  0.1333333333333333 -1.866666666666667 0  0.2666666666666666 -1.866666666666667 0  0.3999999999999999 -1.866666666666667 0  0.5333333333333332 -1.866666666666667 0  0.6666666666666665 -1.866666666666667 0  0.7999999999999998 -1.866666666666667 0  0.9333333333333331 -1.866666666666667 0  1.066666666666667 -1.866666666666667 0  1.2 -1.866666666666667 0  1.333333333333333 -1.866666666666667 0  1.466666666666667 -1.866666666666667 0  1.6 -1.866666666666667 0  1.733333333333333 -1.866666666666667 0  1.866666666666667 -1.866666666666667 0  2 -1.866666666666667 0  -2 -1.733333333333333 0  -1.866666666666667 -1.733333333333333 0  -1.733333333333333 -1.733333333333333 0  -1.6 -1.733333333333333 0  -1.466666666666667 -1.733333333333333 0  -1.333333333333333 -1.733333333333333 0  -1.2 -1.733333333333333 0  -1.066666666666667 -1.733333333333333 0  -0.9333333333333333 -1.733333333333333 0  -0.8 -1.733333333333333 0  -0.6666666666666667 -1.733333333333333 0  -0.5333333333333334 -1.733333333333333 0  -0.3999999999999999 -1.733333333333333 0  -0.2666666666666666 -1.733333333333333 0  -0.1333333333333333 -1.733333333333333 0  0 -1.733333333333333 0  0.1333333333333333 -1.733333333333333 0  0.2666666666666666 -1.733333333333333 0  0.3999999999999999 -1.733333333333333 0  0.5333333333333332 -1.733333333333333 0  0.6666666666666665 -1.733333333333333 0  0.7999999999999998 -1.733333333333333 0  0.9333333333333331 -1.733333333333333 0  1.066666666666667 -1.733333333333333 0  1.2 -1.733333333333333 0  1.333333333333333 -1.733333333333333 0  1.466666666666667 -1.733333333333333 0  1.6 -1.733333333333333 0  1.733333333333333 -1.733333333333333 0  1.866666666666667 -1.733333333333333 0  2 -1.733333333333333 0  -2 -1.6 0  -1.866666666666667 -1.6 0  -1.733333333333333 -1.6 0  -1.6 -1.6 0  -1.466666666666667 -1.6 0  -1.333333333333333 -1.6 0  -1.2 -1.6 0  -1.066666666666667 -1.6 0  -0.9333333333333333 -1.6 0  -0.8 -1.6 0  -0.6666666666666667 -1.6 0  -0.5333333333333334 -1.6 0  -0.3999999999999999 -1.6 0  -0.2666666666666666 -1.6 0  -0.1333333333333333 -1.6 0  0 -1.6 0  0.1333333333333333 -1.6 0  0.2666666666666666 -1.6 0  0.3999999999999999 -1.6 0  0.5333333333333332 -1.6 0  0.6666666666666665 -1.6 0  0.7999999999999998 -1.6 0  0.9333333333333331 -1.6 0  1.066666666666667 -1.6 0  1.2 -1.6 0  1.333333333333333 -1.6 0  1.466666666666667 -1.6 0  1.6 -1.6 0  1.733333333333333 -1.6 0  1.866666666666667 -1.6 0  2 -1.6 0  -2 -1.466666666666667 0  -1.866666666666667 -1.466666666666667 0  -1.733333333333333 -1.466666666666667 0  -1.6 -1.466666666666667 0  -1.466666666666667 -1.466666666666667 0  -1.333333333333333 -1.466666666666667 0  -1.2 -1.466666666666667 0  -1.066666666666667 -1.466666666666667 0  -0.9333333333333333 -1.466666666666667 0  -0.8 -1.466666666666667 0  -0.6666666666666667 -1.466666666666667 0  -0.5333333333333334 -1.466666666666667 0  -0.3999999999999999 -1.466666666666667 0  -0.2666666666666666 -1.466666666666667 0  -0.1333333333333333 -1.466666666666667 0  0 -1.466666666666667 0  0.1333333333333333 -1.466666666666667 0  0.2666666666666666 -1.466666666666667 0  0.3999999999999999 -1.466666666666667 0  0.5333333333333332 -1.466666666666667 0  0.6666666666666665 -1.466666666666667 0  0.7999999999999998 -1.466666666666667 0  0.9333333333333331 -1.466666666666667 0  1.066666666666667 -1.466666666666667 0  1.2 -1.466666666666667 0  1.333333333333333 -1.466666666666667 0  1.466666666666667 -1.466666666666667 0  1.6 -1.466666666666667 0  1.733333333333333 -1.466666666666667 0  1.866666666666667 -1.466666666666667 0  2 -1.466666666666667 0  -2 -1.333333333333333 0  -1.866666666666667 -1.333333333333333 0  -1.733333333333333 -1.333333333333333 0  -1.6 -1.333333333333333 0  -1.466666666666667 -1.333333333333333 0  -1.333333333333333 -1.333333333333333 0  -1.2 -1.333333333333333 0  -1.066666666666667 -1.333333333333333 0  -0.9333333333333333 -1.333333333333333 0  -0.8 -1.333333333333333 0  -0.6666666666666667 -1.333333333333333 0  -0.5333333333333334 -1.333333333333333 0  -0.3999999999999999 -1.333333333333333 0  -0.2666666666666666 -1.333333333333333 0  -0.1333333333333333 -1.333333333333333 0  0 -1.333333333333333 0  0.1333333333333333 -1.333333333333333 0  0.2666666666666666 -1.333333333333333 0  0.3999999999999999 -1.333333333333333 0  0.5333333333333332 -1.333333333333333 0  0.6666666666666665 -1.333333333333333 0  0.7999999999999998 -1.333333333333333 0  0.9333333333333331 -1.333333333333333 0  1.066666666666667 -1.333333333333333 0  1.2 -1.333333333333333 0  1.333333333333333 -1.333333333333333 0  1.466666666666667 -1.333333333333333 0  1.6 -1.333333333333333 0  1.733333333333333 -1.333333333333333 0  1.866666666666667 -1.333333333333333 0  2 -1.333333333333333 0  -2 -1.2 0  -1.866666666666667 -1.2 0  -1.733333333333333 -1.2 0  -1.6 -1.2 0  -1.466666666666667 -1.2 0  -1.333333333333333 -1.2 0  -1.2 -1.2 0  -1.066666666666667 -1.2 0  -0.9333333333333333 -1.2 0  -0.8 -1.2 0  -0.6666666666666667 -1.2 0  -0.5333333333333334 -1.2 0  -0.3999999999999999 -1.2 0  -0.2666666666666666 -1.2 0  -0.1333333333333333 -1.2 0  0 -1.2 0  0.1333333333333333 -1.2 0  0.2666666666666666 -1.2 0  0.3999999999999999 -1.2 0  0.5333333333333332 -1.2 0  0.6666666666666665 -1.2 0  0.7999999999999998 -1.2 0  0.9333333333333331 -1.2 0  1.066666666666667 -1.2 0  1.2 -1.2 0  1.333333333333333 -1.2 0  1.466666666666667 -1.2 0  1.6 -1.2 0  1.733333333333333 -1.2 0  1.866666666666667 -1.2 0  2 -1.2 0  -2 -1.066666666666667 0  -1.866666666666667 -1.066666666666667 0  -1.733333333333333 -1.066666666666667 0  -1.6 -1.066666666666667 0  -1.466666666666667 -1.066666666666667 0  -1.333333333333333 -1.066666666666667 0  -1.2 -1.066666666666667 0  -1.066666666666667 -1.066666666666667 0  -0.9333333333333333 -1.066666666666667 0  -0.8 -1.066666666666667 0  -0.6666666666666667 -1.066666666666667 0  -0.5333333333333334 -1.066666666666667 0  -0.3999999999999999 -1.066666666666667 0  -0.2666666666666666 -1.066666666666667 0  -0.1333333333333333 -1.066666666666667 0  0 -1.066666666666667 0  0.1333333333333333 -1.066666666666667 0  0.2666666666666666 -1.066666666666667 0  0.3999999999999999 -1.066666666666667 0  0.5333333333333332 -1.066666666666667 0  0.6666666666666665 -1.066666666666667 0  0.7999999999999998 -1.066666666666667 0  0.9333333333333331 -1.066666666666667 0  1.066666666666667 -1.066666666666667 0  1.2 -1.066666666666667 0  1.333333333333333 -1.066666666666667 0  1.466666666666667 -1.066666666666667 0  1.6 -1.066666666666667 0  1.733333333333333 -1.066666666666667 0  1.866666666666667 -1.066666666666667 0  2 -1.066666666666667 0  -2 -0.9333333333333333 0  -1.866666666666667 -0.9333333333333333 0  -1.733333333333333 -0.9333333333333333 0  -1.6 -0.9333333333333333 0  -1.466666666666667 -0.9333333333333333 0  -1.333333333333333 -0.9333333333333333 0  -1.2 -0.9333333333333333 0  -1.066666666666667 -0.9333333333333333 0  -0.9333333333333333 -0.9333333333333333 0  -0.8 -0.9333333333333333 0  -0.6666666666666667 -0.9333333333333333 0  -0.5333333333333334 -0.9333333333333333 0  -0.3999999999999999 -0.9333333333333333 0  -0.2666666666666666 -0.9333333333333333 0  -0.1333333333333333 -0.9333333333333333 0  0 -0.9333333333333333 0  0.1333333333333333 -0.9333333333333333 0  0.2666666666666666 -0.9333333333333333 0  0.3999999999999999 -0.9333333333333333 0  0.5333333333333332 -0.9333333333333333 0  0.6666666666666665 -0.9333333333333333 0  0.7999999999999998 -0.9333333333333333 0  0.9333333333333331 -0.9333333333333333 0  1.066666666666667 -0.9333333333333333 0  1.2 -0.9333333333333333 0  1.333333333333333 -0.9333333333333333 0  1.466666666666667 -0.9333333333333333 0  1.6 -0.9333333333333333 0  1.733333333333333 -0.9333333333333333 0  1.866666666666667 -0.9333333333333333 0  2 -0.9333333333333333 0  -2 -0.8 0  -1.866666666666667 -0.8 0  -1.733333333333333 -0.8 0  -1.6 -0.8 0  -1.466666666666667 -0.8 0  -1.333333333333333 -0.8 0  -1.2 -0.8 0  -1.066666666666667 -0.8 0  -0.9333333333333333 -0.8 0  -0.8 -0.8 0  -0.6666666666666667 -0.8 0  -0.5333333333333334 -0.8 0  -0.3999999999999999 -0.8 0  -0.2666666666666666 -0.8 0  -0.1333333333333333 -0.8 0  0 -0.8 0  0.1333333333333333 -0.8 0  0.2666666666666666 -0.8 0  0.3999999999999999 -0.8 0  0.5333333333333332 -0.8 0  0.6666666666666665 -0.8 0  0.7999999999999998 -0.8 0  0.9333333333333331 -0.8 0  1.066666666666667 -0.8 0  1.2 -0.8 0  1.333333333333333 -0.8 0  1.466666666666667 -0.8 0  1.6 -0.8 0  1.733333333333333 -0.8 0  1.866666666666667 -0.8 0  2 -0.8 0  -2 -0.6666666666666667 0  -1.866666666666667 -0.
[...]
<PointData  Scalars="f_1363"> 
<DataArray  type="Float64"  Name="f_1363"  format="ascii">0.0000000000000000e+00  0.0000000000000000e+00  0.0000000000000000e+00  0.0000000000000000e+00  0.0000000000000000e+00  0.0000000000000000e+00  0.0000000000000000e+00  0.0000000000000000e+00  0.0000000000000000e+00  0.0000000000000000e+00  0.0000000000000000e+00  0.0000000000000000e+00  0.0000000000000000e+00  0.0000000000000000e+00  0.0000000000000000e+00  0.0000000000000000e+00  0.0000000000000000e+00  0.0000000000000000e+00  0.0000000000000000e+00  0.0000000000000000e+00  0.0000000000000000e+00  0.0000000000000000e+00  0.0000000000000000e+00  0.0000000000000000e+00  0.0000000000000000e+00  0.0000000000000000e+00  0.0000000000000000e+00  0.0000000000000000e+00  0.0000000000000000e+00  0.0000000000000000e+00  0.0000000000000000e+00  0.0000000000000000e+00  1.8654618253188834e-04  3.7073250129682249e-04  5.5069188070575481e-04  7.2452949276684362e-04  8.9038444757245016e-04  1.0464646003002171e-03  1.1910722080234830e-03  1.3226257861586796e-03  1.4396798297368831e-03  1.5409428435125482e-03  1.6252936715256266e-03  1.6917959347110838e-03  1.7397103171331108e-03  1.7685044326921859e-03  1.7778600328409268e-03  1.7676773707626394e-03  1.7380766106839104e-03  1.6893962553883736e-03  1.6221886536796220e-03  1.5372127360437123e-03  1.4354242056585952e-03  1.3179634797453334e-03  1.1861417331454204e-03  1.0414254486889719e-03  8.8541994849077033e-04  7.1985252405292550e-04  5.4655616272497782e-04  3.6745598159550479e-04  1.8456400546598659e-04  0.0000000000000000e+00  0.0000000000000000e+00  3.7073250129682266e-04  7.3698077299655330e-04  1.0948983196412468e-03  1.4406739787055677e-03  1.7705909230613791e-03  2.0810779023968423e-03  2.3687546809811918e-03  2.6304735762815597e-03  2.8633579403438414e-03  3.0648377063793647e-03  3.2326817250797934e-03  3.3650264146802122e-03  3.4604001698936618e-03  3.5177429787911401e-03  3.5364207623772830e-03  3.5162340644995104e-03  3.4574208669306303e-03  3.3606534729368415e-03  3.2270295790683390e-03  3.0580578264304205e-03  2.8556382781162086e-03  2.6220384008429180e-03  2.3598652334592286e-03  2.0720345086535749e-03  1.7617375767722970e-03  1.4324071070315734e-03  1.0876827999860145e-03  7.3137887835329686e-04  3.6745598159550484e-04  0.0000000000000000e+00  0.0000000000000000e+00  5.5069188070575481e-04  1.0948983196412464e-03  1.6268166891202887e-03  2.1407411345297184e-03  2.6311271275737047e-03  3.0926561774519013e-03  3.5202981859668680e-03  3.9093708480330489e-03  4.2555957574981927e-03  4.5551507117334864e-03  4.8047175080165368e-03  5.0015243918824087e-03  5.1433822709993143e-03  5.2287138450560749e-03  5.2565749138348975e-03  5.2266672999480958e-03  5.1393430445073373e-03  4.9955997856093257e-03  4.7970674918198768e-03  4.5459869767055438e-03  4.2451808486142660e-03  3.8980177387899426e-03  3.5083707925653313e-03  3.0805715020992205e-03  2.6193600122280227e-03  2.1298330562116285e-03  1.6173906777885410e-03  1.0876827999860143e-03  5.4655616272497782e-04  0.0000000000000000e+00  0.0000000000000000e+00  7.2452949276684395e-04  1.4406739787055681e-03  2.1407411345297197e-03  2.8171866982970154e-03  3.4626923738992109e-03  4.0702453162173927e-03  4.6332166946109312e-03  5.1454378932658511e-03  5.6012732664279460e-03  5.9956883825503593e-03  6.3243126045926506e-03  6.5834947818881736e-03  6.7703508226639566e-03  6.8828019933930649e-03  6.9196029527665093e-03  6.8803587649333012e-03  6.7655304322632465e-03  6.5764288206435588e-03  6.3151971956957303e-03  5.9847829211322747e-03  5.5888991673453021e-03  5.1319777197534498e-03  4.6191141485940179e-03  4.0560066971801791e-03  3.4488902613299807e-03  2.8044667642908925e-03  2.1298330562116289e-03  1.4324071070315738e-03  7.1985252405292583e-04  0.0000000000000000e+00  0.0000000000000000e+00  8.9038444757245092e-04  1.7705909230613800e-03  2.6311271275737060e-03  3.4626923738992131e-03  4.2562718149921474e-03  5.0032317557128538e-03  5.6954142298152590e-03  6.3252292834349985e-03  6.8857435210660503e-03  7.3707634474631314e-03  7.7749120668288334e-03  8.0936971528659842e-03  8.3235696252346916e-03  8.4619705815739965e-03  8.5073657440584063e-03  8.4592663769426021e-03  8.3182360983168058e-03  8.0858834198949733e-03  7.7648402734121370e-03  7.3587271901775055e-03  6.8721061622326867e-03  6.3104225043639330e-03  5.6799372370088018e-03  4.9876516087607225e-03  4.2412253670600156e-03  3.4488902613299824e-03  2.6193600122280248e-03  1.7617375767722985e-03  8.8541994849077120e-04  0.0000000000000000e+00  0.0000000000000000e+00  1.0464646003002188e-03  2.0810779023968454e-03  3.0926561774519057e-03  4.0702453162173970e-03  5.0032317557128555e-03  5.8814537130268494e-03  6.6953113722484029e-03  7.4358745178046883e-03  8.0949859930037494e-03  8.6653592385962618e-03  9.1406680572044315e-03  9.5156266960309561e-03  9.7860583753461433e-03  9.9489505324530155e-03  1.0002495303764319e-02  9.9461141214188947e-03  9.7804657344444535e-03  9.5074374483711203e-03  9.1301198767623059e-03  8.6527659769710021e-03  8.0807355658639290e-03  7.4204268493728740e-03  6.6791967297454317e-03  5.8652717618609129e-03  4.9876516087607242e-03  4.0560066971801817e-03  3.0805715020992231e-03  2.0720345086535762e-03  1.0414254486889730e-03  0.0000000000000000e+00  0.0000000000000000e+00  1.1910722080234852e-03  2.3687546809811966e-03  3.5202981859668754e-03  4.6332166946109398e-03  5.6954142298152642e-03  6.6953113722484029e-03  7.6219702827862628e-03  8.4652167688470149e-03  9.2157576596410048e-03  9.8652915369737536e-03  1.0406610708589611e-02  1.0833692237481757e-02  1.1141775878068727e-02  1.1327426933231398e-02  1.1388582336143170e-02  1.1324578665330232e-02  1.1136161296223681e-02  1.0825474444070287e-02  1.0396032422038105e-02  9.8526729832447112e-03  9.2014940966867707e-03  8.4497758905652792e-03  7.6058897565557280e-03  6.6791967297454282e-03  5.6799372370088001e-03  4.6191141485940187e-03  3.5083707925653313e-03  2.3598652334592286e-03  1.1861417331454202e-03  0.0000000000000000e+00  0.0000000000000000e+00  1.3226257861586818e-03  2.6304735762815654e-03  3.9093708480330575e-03  5.1454378932658572e-03  6.3252292834350072e-03  7.4358745178046918e-03  8.4652167688470115e-03  9.4019482398397802e-03  1.0235740299834995e-02  1.0957366272013148e-02  1.1558814545070318e-02  1.2033389580134746e-02  1.2375798420127806e-02  1.2582220486718873e-02  1.2650358771121726e-02  1.2579470974131384e-02  1.2370379700557189e-02  1.2025461426112907e-02  1.1548614587025332e-02  1.0945207748066082e-02  1.0222009339483060e-02  9.3871008796997286e-03  8.4497758905652757e-03  7.4204268493728680e-03  6.3104225043639252e-03  5.1319777197534437e-03  3.8980177387899374e-03  2.6220384008429150e-03  1.3179634797453321e-03  0.0000000000000000e+00  0.0000000000000000e+00  1.4396798297368855e-03  2.8633579403438466e-03  4.2555957574981996e-03  5.6012732664279530e-03  6.8857435210660607e-03  8.0949859930037581e-03  9.2157576596410100e-03  1.0235740299835001e-02  1.1143682064158413e-02  1.1929531047997729e-02  1.2584558351770801e-02  1.3101467993803772e-02  1.3474491070976440e-02  1.3699461751757316e-02  1.3773873033332868e-02  1.3696910682218590e-02  1.3469464375669820e-02  1.3094115728371793e-02  1.2575103577432694e-02  1.1918267558466197e-02  1.1130971588776441e-02  1.0222009339483064e-02  9.2014940966867707e-03  8.0807355658639220e-03  6.8721061622326815e-03  5.5888991673452978e-03  4.2451808486142625e-03  2.8556382781162078e-03  1.4354242056585948e-03  0.0000000000000000e+00  0.0000000000000000e+00  1.5409428435125508e-03  3.0648377063793694e-03  4.5551507117334933e-03  5.9956883825503680e-03  7.3707634474631462e-03  8.6653592385962739e-03  9.8652915369737623e-03  1.0957366272013149e-02  1.1929531047997729e-02  1.2771018096815233e-02  1.3472475983716757e-02  1.4026087256373131e-02  1.4425669252304447e-02  1.4666755477929885e-02  1.4746655340953464e-02  1.4664490537955543e-02  1.4421207038108725e-02  1.4019562317797959e-02  1.3464088238286960e-02  1.2761030665707027e-02  1.1918267558466202e-02  1.0945207748066090e-02  9.8526729832447129e-03  8.6527659769710004e-03  7.3587271901775020e-03  5.9847829211322747e-03  4.5459869767055464e-03  3.0580578264304218e-03  1.5372127360437126e-03  0.0000000000000000e+00  0.0000000000000000e+00  1.6252936715256301e-03  3.2326817250797994e-03  4.8047175080165446e-03  6.3243126045926601e-03  7.7749120668288429e-03  9.1406680572044489e-03  1.0406610708589626e-02  1.1558814545070319e-02  1.2584558351770804e-02  1.3472475983716757e-02  1.4212695310112917e-02  1.4796962340187550e-02  1.5218747597542971e-02  1.5473332014775758e-02  1.5557870005709797e-02  1.5471427919163335e-02  1.5214996751040134e-02  1.4791478744107925e-02  1.4205648282924383e-02  1.3464088238286964e-02  1.2575103577432705e-02  1.1548614587025349e-02  1.0396032422038111e-02  9.1301198767623076e-03  7.7648402734121361e-03  6.3151971956957346e-03  4.7970674918198812e-03  3.2270295790683412e-03  1.6221886536796231e-03  0.0000000000000000e+00  0.0000000000000000e+00  1.6917959347110877e-03  3.3650264146802187e-03  5.0015243918824165e-03  6.5834947818881840e-03  8.0936971528659980e-03  9.5156266960309700e-03  1.0833692237481769e-02  1.2033389580134755e-02  1.3101467993803777e-02  1.4026087256373122e-02  1.4796962340187543e-02  1.5405492677365410e-02  1.5844872955336996e-02  1.6110182603564789e-02  1.6198451530919533e-02  1.6108700240079148e-02  1.5841953144480631e-02  1.5401224696286585e-02  1.4791478744107925e-02  1.4019562317797956e-02  1.3094115728371800e-02  1.2025461426112915e-02  1.0825474444070286e-02  9.5074374483711151e-03  8.0858834198949698e-03  6.5764288206435553e-03  4.9955997856093249e-03  3.3606534729368411e-03  1.6893962553883736e-03  0.0000000000000000e+00  0.0000000000000000e+00  1.7397103171331149e-03  3.4604001698936688e-03  5.1433822709993247e-03  6.7703508226639670e-03  8.3235696252347002e-03  9.7860583753461537e-03  1.1141775878068739e-02  1.2375798420127820e-02  1.3474491070976450e-02  1.4425669252304442e-02  1.5218747597542973e-02  1.5844872955337007e-02  1.6297038405995338e-02  1.6570175372544689e-02  1.6661221315250052e-02  1.6569161079450549e-02  1.6295040684280632e-02  1.5841953144480617e-02  1.5214996751040120e-02  1.4421207038108709e-02  1.3469464375669815e-02  1.2370379700557186e-02  1.1136161296223664e-02  9.7804657344444344e-03  8.3182360983167902e-03  6.7655304322632327e-03  5.1393430445073321e-03  3.4574208669306264e-03  1.7380766106839085e-03  0.0000000000000000e+00  0.0000000000000000e+00  1.7685044326921919e-03  3.5177429787911483e-03  5.2287138450560914e-03  6.8828019933930796e-03  8.4619705815740121e-03  9.9489505324530329e-03  1.1327426933231417e-02  1.2582220486718894e-02  1.3699461751757333e-02  1.4666755477929902e-02  1.5473332014775774e-02  1.6110182603564800e-02  1.6570175372544699e-02  1.6848149070140438e-02  1.6940981982213301e-02  1.6847634068216349e-02  1.6569161079450532e-02  1.6108700240079120e-02  1.5471427919163297e-02  1.4664490537955521e-02  1.3696910682218571e-02  1.2579470974131370e-02  1.1324578665330208e-02  9.9461141214188652e-03  8.4592663769425744e-03  6.8803587649332813e-03  5.2266672999480880e-03  3.5162340644995030e-03  1.7676773707626353e-03  0.0000000000000000e+00  0.0000000000000000e+00  1.7778600328409323e-03  3.5364207623772947e-03  5.2565749138349122e-03  6.9196029527665241e-03  8.5073657440584254e-03  1.0002495303764338e-02  1.1388582336143194e-02  1.2650358771121750e-02  1.3773873033332896e-02  1.4746655340953487e-02  1.5557870005709811e-02  1.6198451530919554e-02  1.6661221315250063e-02  1.6940981982213305e-02  1.7034586766992734e-02  1.6940981982213284e-02  1.6661221315250028e-02  1.6198451530919495e-02  1.5557870005709747e-02  1.4746655340953424e-02  1.3773873033332832e-02  1.2650358771121702e-02  1.1388582336143137e-02  1.0002495303764283e-02  8.5073657440583698e-03  6.9196029527664816e-03  5.2565749138348784e-03  3.5364207623772717e-03  1.7778600328409214e-03  0.0000000000000000e+00  0.0000000000000000e+00  1.7676773707626444e-03  3.5162340644995216e-03  5.2266672999481132e-03  6.8803587649333151e-03  8.4592663769426143e-03  9.9461141214189121e-03  1.1324578665330253e-02  1.2579470974131415e-02  1.3696910682218634e-02  1.4664490537955578e-02  1.5471427919163359e-02  1.6108700240079168e-02  1.6569161079450563e-02  1.6847634068216363e-02  1.6940981982213294e-02  1.6848149070140411e-02  1.6570175372544654e-02  1.6110182603564737e-02  1.5473332014775694e-02  1.4666755477929831e-02  1.3699461751757269e-02  1.2582220486718837e-02  1.1327426933231360e-02  9.9489505324529721e-03  8.4619705815739549e-03  6.8828019933930337e-03  5.2287138450560541e-03  3.5177429787911262e-03  1.7685044326921800e-03  0.0000000000000000e+00  0.0000000000000000e+00  1.7380766106839152e-03  3.4574208669306407e-03  5.1393430445073520e-03  6.7655304322632561e-03  8.3182360983168196e-03  9.7804657344444743e-03  1.1136161296223699e-02  1.2370379700557217e-02  1.3469464375669853e-02  1.4421207038108759e-02  1.5214996751040153e-02  1.5841953144480662e-02  1.6295040684280653e-02  1.6569161079450553e-02  1.6661221315250042e-02  1.6570175372544658e-02  1.6297038405995289e-02  1.5844872955336934e-02  1.5218747597542895e-02  1.4425669252304376e-02  1.3474491070976377e-02  1.2375798420127761e-02  1.1141775878068676e-02  9.7860583753460947e-03  8.3235696252346482e-03  6.7703508226639219e-03  5.1433822709992909e-03  3.4604001698936458e-03  1.7397103171331028e-03  0.0000000000000000e+00  0.0000000000000000e+00  1.6893962553883788e-03  3.3606534729368519e-03  4.9955997856093379e-03  6.5764288206435692e-03  8.0858834198949871e-03  9.5074374483711411e-03  1.0825474444070306e-02  1.2025461426112933e-02  1.3094115728371823e-02  1.4019562317797994e-02  1.4791478744107961e-02  1.5401224696286622e-02  1.5841953144480649e-02  1.6108700240079148e-02  1.6198451530919512e-02  1.6110182603564747e-02  1.5844872955336944e-02  1.5405492677365341e-02  1.4796962340187467e-02  1.4026087256373040e-02  1.3101467993803696e-02  1.2033389580134687e-02  1.0833692237481700e-02  9.5156266960309058e-03  8.0936971528659390e-03  6.5834947818881355e-03  5.0015243918823801e-03  3.3650264146801918e-03  1.6917959347110740e-03  0.0000000000000000e+00  0.0000000000000000e+00  1.6221886536796266e-03  3.2270295790683486e-03  4.7970674918198881e-03  6.3151971956957416e-03  7.7648402734121517e-03  9.1301198767623250e-03  1.0396032422038123e-02  1.1548614587025358e-02  1.2575103577432720e-02  1.3464088238286986e-02  1.4205648282924423e-02  1.4791478744107961e-02  1.5214996751040164e-02  1.5471427919163330e-02  1.5557870005709769e-02  1.5473332014775715e-02  1.5218747597542912e-02  1.4796962340187474e-02  1.4212695310112843e-02  1.3472475983716679e-02  1.2584558351770730e-02  1.1558814545070255e-02  1.0406610708589554e-02  9.1406680572043864e-03  7.7749120668287918e-03  6.3243126045926142e-03  4.8047175080165056e-03  3.2326817250797708e-03  1.6252936715256165e-03  0.0000000000000000e+00  0.0000000000000000e+00  1.5372127360437160e-03  3.0580578264304287e-03  4.5459869767055542e-03  5.9847829211322852e-03  7.3587271901775185e-03  8.6527659769710195e-03  9.8526729832447268e-03  1.0945207748066102e-02  1.1918267558466219e-02  1.2761030665707053e-02  1.3464088238286992e-02  1.4019562317797992e-02  1.4421207038108744e-02  1.4664490537955545e-02  1.4746655340953449e-02  1.4666755477929849e-02  1.4425669252304391e-02  1.4026087256373056e-02  1.3472475983716689e-02  1.2771018096815164e-02  1.1929531047997667e-02  1.0957366272013092e-02  9.8652915369737051e-03  8.6653592385962149e-03  7.3707634474630924e-03  5.9956883825503246e-03  4.5551507117334595e-03  3.0648377063793465e-03  1.5409428435125393e-03  0.0000000000000000e+00  0.0000000000000000e+00  1.4354242056585985e-03  2.8556382781162160e-03  4.2451808486142746e-03  5.5888991673453108e-03  6.8721061622326971e-03  8.0807355658639429e-03  9.2014940966867863e-03  1.0222009339483073e-02  1.1130971588776453e-02  1.1918267558466224e-02  1.2575103577432731e-02  1.3094115728371828e-02  1.3469464375669839e-02  1.3696910682218594e-02  1.3773873033332860e-02  1.3699461751757283e-02  1.3474491070976397e-02  1.3101467993803717e-02  1.2584558351770742e-02  1.1929531047997674e-02  1.1143682064158359e-02  1.0235740299834956e-02  9.2157576596409597e-03  8.0949859930037043e-03  6.8857435210660086e-03  5.6012732664279096e-03  4.2555957574981675e-03  2.8633579403438253e-03  1.4396798297368753e-03  0.0000000000000000e+00  0.0000000000000000e+00  1.3179634797453356e-03  2.6220384008429237e-03  3.8980177387899486e-03  5.1319777197534567e-03  6.3104225043639408e-03  7.4204268493728862e-03  8.4497758905652948e-03  9.3871008796997408e-03  1.0222009339483074e-02  1.0945207748066109e-02  1.1548614587025370e-02  1.2025461426112936e-02  1.2370379700557212e-02  1.2579470974131398e-02  1.2650358771121726e-02  1.2582220486718856e-02  1.2375798420127780e-02  1.2033389580134706e-02  1.1558814545070271e-02  1.0957366272013104e-02  1.0235740299834963e-02  9.4019482398397507e-03  8.4652167688469698e-03  7.4358745178046432e-03  6.3252292834349629e-03  5.1454378932658217e-03  3.9093708480330280e-03  2.6304735762815471e-03  1.3226257861586729e-03  0.0000000000000000e+00  0.0000000000000000e+00  1.1861417331454223e-03  2.3598652334592325e-03  3.5083707925653356e-03  4.6191141485940213e-03  5.6799372370088053e-03  6.6791967297454412e-03  7.6058897565557410e-03  8.4497758905652861e-03  9.2014940966867811e-03  9.8526729832447250e-03  1.0396032422038123e-02  1.0825474444070301e-02  1.1136161296223690e-02  1.1324578665330230e-02  1.1388582336143161e-02  1.1327426933231379e-02  1.1141775878068695e-02  1.0833692237481719e-02  1.0406610708589573e-02  9.8652915369737137e-03  9.2157576596409666e-03  8.4652167688469768e-03  7.6219702827862211e-03  6.6953113722483595e-03  5.6954142298152235e-03  4.6332166946109051e-03  3.5202981859668485e-03  2.3687546809811784e-03  1.1910722080234761e-03  0.0000000000000000e+00  0.0000000000000000e+00  1.0414254486889739e-03  2.0720345086535780e-03  3.0805715020992249e-03  4.0560066971801834e-03  4.9876516087607259e-03  5.8652717618609190e-03  6.6791967297454352e-03  7.4204268493728758e-03  8.0807355658639307e-03  8.6527659769710091e-03  9.1301198767623180e-03  9.5074374483711272e-03  9.7804657344444518e-03  9.9461141214188843e-03  1.0002495303764302e-02  9.9489505324529912e-03  9.7860583753461173e-03  9.5156266960309249e-03  9.1406680572044003e-03  8.6653592385962253e-03  8.0949859930037147e-03  7.4358745178046528e-03  6.6953113722483613e-03  5.8814537130268095e-03  5.0032317557128225e-03  4.0702453162173675e-03  3.0926561774518827e-03  2.0810779023968293e-03  1.0464646003002104e-03  0.0000000000000000e+00  0.0000000000000000e+00  8.8541994849077163e-04  1.7617375767722998e-03  2.6193600122280266e-03  3.4488902613299837e-03  4.2412253670600164e-03  4.9876516087607259e-03  5.6799372370088001e-03  6.3104225043639304e-03  6.8721061622326858e-03  7.3587271901775107e-03  7.7648402734121413e-03  8.0858834198949785e-03  8.3182360983168023e-03  8.4592663769425935e-03  8.5073657440583924e-03  8.4619705815739688e-03  8.3235696252346638e-03  8.0936971528659547e-03  7.7749120668287996e-03  7.3707634474631037e-03  6.8857435210660199e-03  6.3252292834349690e-03  5.6954142298152278e-03  5.0032317557128225e-03  4.2562718149921205e-03  3.4626923738991897e-03  2.6311271275736886e-03  1.7705909230613674e-03  8.9038444757244398e-04  0.0000000000000000e+00  0.0000000000000000e+00  7.1985252405292648e-04  1.4324071070315756e-03  2.1298330562116311e-03  2.8044667642908960e-03  3.4488902613299859e-03  4.0560066971801825e-03  4.6191141485940179e-03  5.1319777197534455e-03  5.5888991673452987e-03  5.9847829211322773e-03  6.3151971956957372e-03  6.5764288206435614e-03  6.7655304322632413e-03  6.8803587649332943e-03  6.9196029527664963e-03  6.8828019933930458e-03  6.7703508226639349e-03  6.5834947818881459e-03  6.3243126045926211e-03  5.9956883825503316e-03  5.6012732664279183e-03  5.1454378932658277e-03  4.6332166946109