<?xml version="1.0"?>
<VTKFile type="UnstructuredGrid"  version="0.1"  >
<UnstructuredGrid>
<Piece  NumberOfPoints="961" NumberOfCells="1800">
<Points>
<DataArray  type="Float64"  NumberOfComponents="3"  format="ascii">-2 -2 0  -1.866666666666667 -2 0  -1.733333333333333 -2 0  -1.6 -2 0  -1.466666666666667 -2 0  -1.333333333333333 -2 0  -1.2 -2 0  -1.066666666666667 -2 0  -0.9333333333333333 -2 0  -0.8 -2 0  -0.6666666666666667 -2 0  -0.5333333333333334 -2 0  -0.3999999999999999 -2 0  -0.2666666666666666 -2 0  -0.1333333333333333 -2 0  0 -2 0  0.1333333333333333 -2 0  0.2666666666666666 -2 0  0.3999999999999999 -2 0  0.5333333333333332 -2 0  0.6666666666666665 -2 0  0.7999999999999998 -2 0  0.9333333333333331 -2 0  1.066666666666667 -2 0  1.2 -2 0  1.333333333333333 -2 0  1.466666666666667 -2 0  1.6 -2 0  1.733333333333333 -2 0  1.866666666666667 -2 0  2 -2 0  -2 -1.866666666666667 0  -1.866666666666667 -1.866666666666667 0  -1.733333333333333 -1.866666666666667 0  -1.6 -1.866666666666667 0  -1.466666666666667 -1.866666666666667 0  -1.333333333333333 -1.866666666666667 0  -1.2 -1.866666666666667 0  -1.066666666666667 -1.866666666666667 0  -0.9333333333333333 -1.866666666666667 0  -0.8 -1.866666666666667 0  -0.6666666666666667 -1.866666666666667 0  -0.5333333333333334 -1.866666666666667 0  -0.3999999999999999 -1.866666666666667 0  -0.2666666666666666 -1.866666666666667 0  -0.1333333333333333 -1.866666666666667 0  0 -1.866666666666667 0  0.1333333333333333 -1.866666666666667 0  0.2666666666666666 -1.866666666666667 0  0.3999999999999999 -1.866666666666667 0  0.5333333333333332 -1.866666666666667 0  0.6666666666666665 -1.866666666666667 0  0.7999999999999998 -1.866666666666667 0  0.9333333333333331 -1.866666666666667 0  1.066666666666667 -1.866666666666667 0  1.2 -1.866666666666667 0  1.333333333333333 -1.866666666666667 0  1.466666666666667 -1.866666666666667 0  1.6 -1.866666666666667 0  1.733333333333333 -1.866666666666667 0  1.866666666666667 -1.866666666666667 0  2 -1.866666666666667 0  -2 -1.733333333333333 0  -1.866666666666667 -1.733333333333333 0  -1.733333333333333 -1.733333333333333 0  -1.6 -1.733333333333333 0  -1.466666666666667 -1.733333333333333 0  -1.333333333333333 -1.733333333333333 0  -1.2 -1.733333333333333 0  -1.066666666666667 -1.733333333333333 0  -0.9333333333333333 -1.733333333333333 0  -0.8 -1.733333333333333 0  -0.6666666666666667 -1.733333333333333 0  -0.5333333333333334 -1.733333333333333 0  -0.3999999999999999 -1.733333333333333 0  -0.2666666666666666 -1.733333333333333 0  -0.1333333333333333 -1.733333333333333 0  0 -1.733333333333333 0  0.1333333333333333 -1.733333333333333 0  0.2666666666666666 -1.733333333333333 0  0.3999999999999999 -1.733333333333333 0  0.5333333333333332 -1.733333333333333 0  0.6666666666666665 -1.733333333333333 0  0.7999999999999998 -1.733333333333333 0  0.9333333333333331 -1.733333333333333 0  1.066666666666667 -1.733333333333333 0  1.2 -1.733333333333333 0  1.333333333333333 -1.733333333333333 0  1.466666666666667 -1.733333333333333 0  1.6 -1.733333333333333 0  1.733333333333333 -1.733333333333333 0  1.866666666666667 -1.733333333333333 0  2 -1.733333333333333 0  -2 -1.6 0  -1.866666666666667 -1.6 0  -1.733333333333333 -1.6 0  -1.6 -1.6 0  -1.466666666666667 -1.6 0  -1.333333333333333 -1.6 0  -1.2 -1.6 0  -1.066666666666667 -1.6 0  -0.9333333333333333 -1.6 0  -0.8 -1.6 0  -0.6666666666666667 -1.6 0  -0.5333333333333334 -1.6 0  -0.3999999999999999 -1.6 0  -0.2666666666666666 -1.6 0  -0.1333333333333333 -1.6 0  0 -1.6 0  0.1333333333333333 -1.6 0  0.2666666666666666 -1.6 0  0.3999999999999999 -1.6 0  0.5333333333333332 -1.6 0  0.6666666666666665 -1.6 0  0.7999999999999998 -1.6 0  0.9333333333333331 -1.6 0  1.066666666666667 -1.6 0  1.2 -1.6 0  1.333333333333333 -1.6 0  1.466666666666667 -1.6 0  1.6 -1.6 0  1.733333333333333 -1.6 0  1.866666666666667 -1.6 0  2 -1.6 0  -2 -1.466666666666667 0  -1.866666666666667 -1.466666666666667 0  -1.733333333333333 -1.466666666666667 0  -1.6 -1.466666666666667 0  -1.466666666666667 -1.466666666666667 0  -1.333333333333333 -1.466666666666667 0  -1.2 -1.466666666666667 0  -1.066666666666667 -1.466666666666667 0  -0.9333333333333333 -1.466666666666667 0  -0.8 -1.466666666666667 0  -0.6666666666666667 -1.466666666666667 0  -0.5333333333333334 -1.466666666666667 0  -0.3999999999999999 -1.466666666666667 0  -0.2666666666666666 -1.466666666666667 0  -0.1333333333333333 -1.466666666666667 0  0 -1.466666666666667 0  0.1333333333333333 -1.466666666666667 0  0.2666666666666666 -1.466666666666667 0  0.3999999999999999 -1.466666666666667 0  0.5333333333333332 -1.466666666666667 0  0.6666666666666665 -1.466666666666667 0  0.7999999999999998 -1.466666666666667 0  0.9333333333333331 -1.466666666666667 0  1.066666666666667 -1.466666666666667 0  1.2 -1.466666666666667 0  1.333333333333333 -1.466666666666667 0  1.466666666666667 -1.466666666666667 0  1.6 -1.466666666666667 0  1.733333333333333 -1.466666666666667 0  1.866666666666667 -1.466666666666667 0  2 -1.466666666666667 0  -2 -1.333333333333333 0  -1.866666666666667 -1.333333333333333 0  -1.733333333333333 -1.333333333333333 0  -1.6 -1.333333333333333 0  -1.466666666666667 -1.333333333333333 0  -1.333333333333333 -1.333333333333333 0  -1.2 -1.333333333333333 0  -1.066666666666667 -1.333333333333333 0  -0.9333333333333333 -1.333333333333333 0  -0.8 -1.333333333333333 0  -0.6666666666666667 -1.333333333333333 0  -0.5333333333333334 -1.333333333333333 0  -0.3999999999999999 -1.333333333333333 0  -0.2666666666666666 -1.333333333333333 0  -0.1333333333333333 -1.333333333333333 0  0 -1.333333333333333 0  0.1333333333333333 -1.333333333333333 0  0.2666666666666666 -1.333333333333333 0  0.3999999999999999 -1.333333333333333 0  0.5333333333333332 -1.333333333333333 0  0.6666666666666665 -1.333333333333333 0  0.7999999999999998 -1.333333333333333 0  0.9333333333333331 -1.333333333333333 0  1.066666666666667 -1.333333333333333 0  1.2 -1.333333333333333 0  1.333333333333333 -1.333333333333333 0  1.466666666666667 -1.333333333333333 0  1.6 -1.333333333333333 0  1.733333333333333 -1.333333333333333 0  1.866666666666667 -1.333333333333333 0  2 -1.333333333333333 0  -2 -1.2 0  -1.866666666666667 -1.2 0  -1.733333333333333 -1.2 0  -1.6 -1.2 0  -1.466666666666667 -1.2 0  -1.333333333333333 -1.2 0  -1.2 -1.2 0  -1.066666666666667 -1.2 0  -0.9333333333333333 -1.2 0  -0.8 -1.2 0  -0.6666666666666667 -1.2 0  -0.5333333333333334 -1.2 0  -0.3999999999999999 -1.2 0  -0.2666666666666666 -1.2 0  -0.1333333333333333 -1.2 0  0 -1.2 0  0.1333333333333333 -1.2 0  0.2666666666666666 -1.2 0  0.3999999999999999 -1.2 0  0.5333333333333332 -1.2 0  0.6666666666666665 -1.2 0  0.7999999999999998 -1.2 0  0.9333333333333331 -1.2 0  1.066666666666667 -1.2 0  1.2 -1.2 0  1.333333333333333 -1.2 0  1.466666666666667 -1.2 0  1.6 -1.2 0  1.733333333333333 -1.2 0  1.866666666666667 -1.2 0  2 -1.2 0  -2 -1.066666666666667 0  -1.866666666666667 -1.066666666666667 0  -1.733333333333333 -1.066666666666667 0  -1.6 -1.066666666666667 0  -1.466666666666667 -1.066666666666667 0  -1.333333333333333 -1.066666666666667 0  -1.2 -1.066666666666667 0  -1.066666666666667 -1.066666666666667 0  -0.9333333333333333 -1.066666666666667 0  -0.8 -1.066666666666667 0  -0.6666666666666667 -1.066666666666667 0  -0.5333333333333334 -1.066666666666667 0  -0.3999999999999999 -1.066666666666667 0  -0.2666666666666666 -1.066666666666667 0  -0.1333333333333333 -1.066666666666667 0  0 -1.066666666666667 0  0.1333333333333333 -1.066666666666667 0  0.2666666666666666 -1.066666666666667 0  0.3999999999999999 -1.066666666666667 0  0.5333333333333332 -1.066666666666667 0  0.6666666666666665 -1.066666666666667 0  0.7999999999999998 -1.066666666666667 0  0.9333333333333331 -1.066666666666667 0  1.066666666666667 -1.066666666666667 0  1.2 -1.066666666666667 0  1.333333333333333 -1.066666666666667 0  1.466666666666667 -1.066666666666667 0  1.6 -1.066666666666667 0  1.733333333333333 -1.066666666666667 0  1.866666666666667 -1.066666666666667 0  2 -1.066666666666667 0  -2 -0.9333333333333333 0  -1.866666666666667 -0.9333333333333333 0  -1.733333333333333 -0.9333333333333333 0  -1.6 -0.9333333333333333 0  -1.466666666666667 -0.9333333333333333 0  -1.333333333333333 -0.9333333333333333 0  -1.2 -0.9333333333333333 0  -1.066666666666667 -0.9333333333333333 0  -0.9333333333333333 -0.9333333333333333 0  -0.8 -0.9333333333333333 0  -0.6666666666666667 -0.9333333333333333 0  -0.5333333333333334 -0.9333333333333333 0  -0.3999999999999999 -0.9333333333333333 0  -0.2666666666666666 -0.9333333333333333 0  -0.1333333333333333 -0.9333333333333333 0  0 -0.9333333333333333 0  0.1333333333333333 -0.9333333333333333 0  0.2666666666666666 -0.9333333333333333 0  0.3999999999999999 -0.9333333333333333 0  0.5333333333333332 -0.9333333333333333 0  0.6666666666666665 -0.9333333333333333 0  0.7999999999999998 -0.9333333333333333 0  0.9333333333333331 -0.9333333333333333 0  1.066666666666667 -0.9333333333333333 0  1.2 -0.9333333333333333 0  1.333333333333333 -0.9333333333333333 0  1.466666666666667 -0.9333333333333333 0  1.6 -0.9333333333333333 0  1.733333333333333 -0.9333333333333333 0  1.866666666666667 -0.9333333333333333 0  2 -0.9333333333333333 0  -2 -0.8 0  -1.866666666666667 -0.8 0  -1.733333333333333 -0.8 0  -1.6 -0.8 0  -1.466666666666667 -0.8 0  -1.333333333333333 -0.8 0  -1.2 -0.8 0  -1.066666666666667 -0.8 0  -0.9333333333333333 -0.8 0  -0.8 -0.8 0  -0.6666666666666667 -0.8 0  -0.5333333333333334 -0.8 0  -0.3999999999999999 -0.8 0  -0.2666666666666666 -0.8 0  -0.1333333333333333 -0.8 0  0 -0.8 0  0.1333333333333333 -0.8 0  0.2666666666666666 -0.8 0  0.3999999999999999 -0.8 0  0.5333333333333332 -0.8 0  0.6666666666666665 -0.8 0  0.7999999999999998 -0.8 0  0.9333333333333331 -0.8 0  1.066666666666667 -0.8 0  1.2 -0.8 0  1.333333333333333 -0.8 0  1.466666666666667 -0.8 0  1.6 -0.8 0  1.733333333333333 -0.8 0  1.866666666666667 -0.8 0  2 -0.8 0  -2 -0.6666666666666667 0  -1.866666666666667 -0.
[...]
<PointData  Scalars="f_1363"> 
<DataArray  type="Float64"  Name="f_1363"  format="ascii">0.0000000000000000e+00  0.0000000000000000e+00  0.0000000000000000e+00  0.0000000000000000e+00  0.0000000000000000e+00  0.0000000000000000e+00  0.0000000000000000e+00  0.0000000000000000e+00  0.0000000000000000e+00  0.0000000000000000e+00  0.0000000000000000e+00  0.0000000000000000e+00  0.0000000000000000e+00  0.0000000000000000e+00  0.0000000000000000e+00  0.0000000000000000e+00  0.0000000000000000e+00  0.0000000000000000e+00  0.0000000000000000e+00  0.0000000000000000e+00  0.0000000000000000e+00  0.0000000000000000e+00  0.0000000000000000e+00  0.0000000000000000e+00  0.0000000000000000e+00  0.0000000000000000e+00  0.0000000000000000e+00  0.0000000000000000e+00  0.0000000000000000e+00  0.0000000000000000e+00  0.0000000000000000e+00  0.0000000000000000e+00  1.7962141656872258e-04  3.7397141130438168e-04  5.9426661577622643e-04  8.5080272883191691e-04  1.1516386150482751e-03  1.5012006728572882e-03  1.8988001136092203e-03  2.3372736452430729e-03  2.8021045566520952e-03  3.2714440621723893e-03  3.7173872292799968e-03  4.1086357921460252e-03  4.4143269301779777e-03  4.6084177353880379e-03  4.6737339181559430e-03  4.6047527712298692e-03  4.4084474924987590e-03  4.1030036199556467e-03  3.7147597057821027e-03  3.2741322118212735e-03  2.8114332161389417e-03  2.3533666116822478e-03  1.9206821527304428e-03  1.5271092315640631e-03  1.1793986441636629e-03  8.7813202902661824e-04  6.1891869594036316e-04  3.9365158541397740e-04  1.9158053787620482e-04  0.0000000000000000e+00  0.0000000000000000e+00  3.7397141130438201e-04  7.7781479367155463e-04  1.2362578525488119e-03  1.7715699067878676e-03  2.4012329606901721e-03  3.1350958901300301e-03  3.9722077213779185e-03  4.8978352759433260e-03  5.8814576833527577e-03  6.8766736935219697e-03  7.8238301782580268e-03  8.6557040093574369e-03  9.3057893729394381e-03  9.7178656163173522e-03  9.8548740152829481e-03  9.7050279466575819e-03  9.2836490030948817e-03  8.6303082474107062e-03  7.8020700413031375e-03  6.8645462040251943e-03  5.8827852698080212e-03  4.9137246659728710e-03  4.0012321456448161e-03  3.1739617630980265e-03  2.4456070129566629e-03  1.8167799704598222e-03  1.2776807651146778e-03  8.1086405376633839e-04  3.9365158541397751e-04  0.0000000000000000e+00  0.0000000000000000e+00  5.9426661577622654e-04  1.2362578525488119e-03  1.9673515506040190e-03  2.8248406364566386e-03  3.8383706421456797e-03  5.0253270347731735e-03  6.3855112559731298e-03  7.8959606194910874e-03  9.5072731256017513e-03  1.1143084960301104e-02  1.2704176909900368e-02  1.4077892816660980e-02  1.5152190618483097e-02  1.5832069457740825e-02  1.6054918927350201e-02  1.5801106514881463e-02  1.5097114392051214e-02  1.4010485477731571e-02  1.2638026235318732e-02  1.1090326604878607e-02  9.4761785094809679e-03  7.8898869003927227e-03  6.4031776530769175e-03  5.0619805961301294e-03  3.8872620412963351e-03  2.8785120957533108e-03  2.0184346461463473e-03  1.2776807651146778e-03  6.1891869594036348e-04  0.0000000000000000e+00  0.0000000000000000e+00  8.5080272883191735e-04  1.7715699067878685e-03  2.8248406364566390e-03  4.0674242636163302e-03  5.5453082908808642e-03  7.2867727164379181e-03  9.2941586215957248e-03  1.1535567982187380e-02  1.3938619306298970e-02  1.6388926025284120e-02  1.8735794080483210e-02  2.0806438645726701e-02  2.2427829057255509e-02  2.3452641622588713e-02  2.3783733330217147e-02  2.3391078072260936e-02  2.2316713907324547e-02  2.0666492745199203e-02  1.8591071374314167e-02  1.6261230211835079e-02  1.3843381385572659e-02  1.1480044506479759e-02  9.2778643527393154e-03  7.3033970205787224e-03  5.5851519023996403e-03  4.1195554526738797e-03  2.8785120957533121e-03  1.8167799704598231e-03  8.7813202902661867e-04  0.0000000000000000e+00  0.0000000000000000e+00  1.1516386150482755e-03  2.4012329606901729e-03  3.8383706421456806e-03  5.5453082908808651e-03  7.5900350320205270e-03  1.0016463589494044e-02  1.2832273391898468e-02  1.5996191275439012e-02  1.9407854216361792e-02  2.2904370281948732e-02  2.6267615190020546e-02  2.9244604692173628e-02  3.1579921322379474e-02  3.3054969037197603e-02  3.3525397111095902e-02  3.2947120557006424e-02  3.1383841588521033e-02  2.8994160854493189e-02  2.6002218857847838e-02  2.2659988182905180e-02  1.9210427918191955e-02  1.5858805662148163e-02  1.2755875416310253e-02  9.9928944145398404e-03  7.6058487183109499e-03  5.5851519023996411e-03  3.8872620412963360e-03  2.4456070129566651e-03  1.1793986441636637e-03  0.0000000000000000e+00  0.0000000000000000e+00  1.5012006728572901e-03  3.1350958901300323e-03  5.0253270347731761e-03  7.2867727164379224e-03  1.0016463589494047e-02  1.3280102372180072e-02  1.7094730397286036e-02  2.1409916468652916e-02  2.6091934220200154e-02  3.0917044009987890e-02  3.5580167842118163e-02  3.9722962917744083e-02  4.2980333188079263e-02  4.5037919312526084e-02  4.5687589244715096e-02  4.4866266385485278e-02  4.2667106242789930e-02  3.9320057732036798e-02  3.5147954017970426e-02  3.0510691612939060e-02  2.5751531474753606e-02  2.1156343571624572e-02  1.6930876869595442e-02  1.3195478054056504e-02  9.9928944145398456e-03  7.3033970205787276e-03  5.0619805961301320e-03  3.1739617630980300e-03  1.5271092315640644e-03  0.0000000000000000e+00  0.0000000000000000e+00  1.8988001136092225e-03  3.9722077213779228e-03  6.3855112559731350e-03  9.2941586215957300e-03  1.2832273391898468e-02  1.7094730397286026e-02  2.2113246157297949e-02  2.7829500607748053e-02  3.4071392835923801e-02  4.0541189040513063e-02  4.6824994261086460e-02  5.2430071559373431e-02  5.6849465586049544e-02  5.9643684977441311e-02  6.0520620663104430e-02  5.9391921251654899e-02  5.6389283579662934e-02  5.1836140569366314e-02  4.6183985774151386e-02  3.9932149310295949e-02  3.3551774499483725e-02  2.7429564595239455e-02  2.1838065356136371e-02  1.6930876869595442e-02  1.2755875416310259e-02  9.2778643527393224e-03  6.4031776530769193e-03  4.0012321456448169e-03  1.9206821527304443e-03  0.0000000000000000e+00  0.0000000000000000e+00  2.3372736452430746e-03  4.8978352759433295e-03  7.8959606194910874e-03  1.1535567982187384e-02  1.5996191275439015e-02  2.1409916468652913e-02  2.7829500607748046e-02  3.5191324408507876e-02  4.3281195305810136e-02  5.1715068937541284e-02  5.9948277294082294e-02  6.7323364053193807e-02  7.3156964474796207e-02  7.6852218524849983e-02  7.8010365059794889e-02  7.6510239763220050e-02  7.2531544180440846e-02  6.6515131524377394e-02  5.9073653965708864e-02  5.0879798281182664e-02  4.2561820242359938e-02  3.4628117747607066e-02  2.7429564595239448e-02  2.1156343571624551e-02  1.5858805662148152e-02  1.1480044506479756e-02  7.8898869003927175e-03  4.9137246659728684e-03  2.3533666116822469e-03  0.0000000000000000e+00  0.0000000000000000e+00  2.8021045566520957e-03  5.8814576833527603e-03  9.5072731256017583e-03  1.3938619306298977e-02  1.9407854216361802e-02  2.6091934220200168e-02  3.4071392835923794e-02  4.3281195305810122e-02  5.3463579766930329e-02  6.4138847646331626e-02  7.4612851617883336e-02  8.4036021479882123e-02  9.1516109601447224e-02  9.6267602505749589e-02  9.7762315093679844e-02  9.5837909055361992e-02  9.0730357271225637e-02  8.3020497798329762e-02  7.3513106174704287e-02  6.3086393058542953e-02  5.2552989466511588e-02  4.2561820242359973e-02  3.3551774499483718e-02  2.5751531474753588e-02  1.9210427918191945e-02  1.3843381385572668e-02  9.4761785094809731e-03  5.8827852698080238e-03  2.8114332161389439e-03  0.0000000000000000e+00  0.0000000000000000e+00  3.2714440621723923e-03  6.8766736935219740e-03  1.1143084960301112e-02  1.6388926025284127e-02  2.2904370281948739e-02  3.0917044009987897e-02  4.0541189040513063e-02  5.1715068937541263e-02  6.4138847646331612e-02  7.7233162321271490e-02  9.0143087551986772e-02  1.0180813621412940e-01  1.1110310152624610e-01  1.1702920314619712e-01  1.1890975850015954e-01  1.1653301066339364e-01  1.1019615761289554e-01  1.0063663369503023e-01  8.8874858694201211e-02  7.6019010901050496e-02  6.3086393058542981e-02  5.0879798281182727e-02  3.9932149310295963e-02  3.0510691612939067e-02  2.2659988182905186e-02  1.6261230211835096e-02  1.1090326604878620e-02  6.8645462040252030e-03  3.2741322118212770e-03  0.0000000000000000e+00  0.0000000000000000e+00  3.7173872292799990e-03  7.8238301782580320e-03  1.2704176909900375e-02  1.8735794080483221e-02  2.6267615190020556e-02  3.5580167842118184e-02  4.6824994261086501e-02  5.9948277294082288e-02  7.4612851617883322e-02  9.0143087551986745e-02  1.0552362253940263e-01  1.1947907025249054e-01  1.3064294414508149e-01  1.3779224959082786e-01  1.4009135545639800e-01  1.3727249992536159e-01  1.2969350842903093e-01  1.1825371651784380e-01  1.0419823337007442e-01  8.8874858694201239e-02  7.3513106174704385e-02  5.9073653965708989e-02  4.6183985774151413e-02  3.5147954017970461e-02  2.6002218857847877e-02  1.8591071374314205e-02  1.2638026235318751e-02  7.8020700413031505e-03  3.7147597057821087e-03  0.0000000000000000e+00  0.0000000000000000e+00  4.1086357921460270e-03  8.6557040093574421e-03  1.4077892816660985e-02  2.0806438645726705e-02  2.9244604692173638e-02  3.9722962917744103e-02  5.2430071559373487e-02  6.7323364053193821e-02  8.4036021479882123e-02  1.0180813621412936e-01  1.1947907025249051e-01  1.3557461277335880e-01  1.4850108993357797e-01  1.5682074749537767e-01  1.5954228439829904e-01  1.5633903387607015e-01  1.4762165936573424e-01  1.3444061090298728e-01  1.1825371651784379e-01  1.0063663369503026e-01  8.3020497798329845e-02  6.6515131524377449e-02  5.1836140569366342e-02  3.9320057732036805e-02  2.8994160854493214e-02  2.0666492745199223e-02  1.4010485477731587e-02  8.6303082474107166e-03  4.1030036199556520e-03  0.0000000000000000e+00  0.0000000000000000e+00  4.4143269301779812e-03  9.3057893729394416e-03  1.5152190618483106e-02  2.2427829057255520e-02  3.1579921322379481e-02  4.2980333188079284e-02  5.6849465586049586e-02  7.3156964474796207e-02  9.1516109601447224e-02  1.1110310152624607e-01  1.3064294414508154e-01  1.4850108993357800e-01  1.6289682856112719e-01  1.7221174813416687e-01  1.7531961364990353e-01  1.7183771027482836e-01  1.6221431097039193e-01  1.4762165936573413e-01  1.2969350842903088e-01  1.1019615761289550e-01  9.0730357271225637e-02  7.2531544180440874e-02  5.6389283579662906e-02  4.2667106242789889e-02  3.1383841588521019e-02  2.2316713907324540e-02  1.5097114392051218e-02  9.2836490030948852e-03  4.4084474924987616e-03  0.0000000000000000e+00  0.0000000000000000e+00  4.6084177353880474e-03  9.7178656163173591e-03  1.5832069457740839e-02  2.3452641622588727e-02  3.3054969037197623e-02  4.5037919312526098e-02  5.9643684977441318e-02  7.6852218524850011e-02  9.6267602505749630e-02  1.1702920314619718e-01  1.3779224959082795e-01  1.5682074749537783e-01  1.7221174813416701e-01  1.8222450610354604e-01  1.8563666819290847e-01  1.8201945721150253e-01  1.7183771027482819e-01  1.5633903387606990e-01  1.3727249992536136e-01  1.1653301066339349e-01  9.5837909055361908e-02  7.6510239763220009e-02  5.9391921251654801e-02  4.4866266385485194e-02  3.2947120557006382e-02  2.3391078072260912e-02  1.5801106514881449e-02  9.7050279466575785e-03  4.6047527712298674e-03  0.0000000000000000e+00  0.0000000000000000e+00  4.6737339181559499e-03  9.8548740152829585e-03  1.6054918927350219e-02  2.3783733330217161e-02  3.3525397111095950e-02  4.5687589244715131e-02  6.0520620663104471e-02  7.8010365059794959e-02  9.7762315093679927e-02  1.1890975850015970e-01  1.4009135545639817e-01  1.5954228439829923e-01  1.7531961364990373e-01  1.8563666819290855e-01  1.8922829705351407e-01  1.8563666819290833e-01  1.7531961364990337e-01  1.5954228439829873e-01  1.4009135545639764e-01  1.1890975850015933e-01  9.7762315093679705e-02  7.8010365059794820e-02  6.0520620663104291e-02  4.5687589244714985e-02  3.3525397111095832e-02  2.3783733330217105e-02  1.6054918927350181e-02  9.8548740152829325e-03  4.6737339181559378e-03  0.0000000000000000e+00  0.0000000000000000e+00  4.6047527712298761e-03  9.7050279466575975e-03  1.5801106514881480e-02  2.3391078072260957e-02  3.2947120557006458e-02  4.4866266385485319e-02  5.9391921251654940e-02  7.6510239763220134e-02  9.5837909055362172e-02  1.1653301066339379e-01  1.3727249992536178e-01  1.5633903387607032e-01  1.7183771027482844e-01  1.8201945721150267e-01  1.8563666819290844e-01  1.8222450610354585e-01  1.7221174813416670e-01  1.5682074749537742e-01  1.3779224959082750e-01  1.1702920314619687e-01  9.6267602505749381e-02  7.6852218524849872e-02  5.9643684977441151e-02  4.5037919312525952e-02  3.3054969037197519e-02  2.3452641622588661e-02  1.5832069457740794e-02  9.7178656163173349e-03  4.6084177353880353e-03  0.0000000000000000e+00  0.0000000000000000e+00  4.4084474924987651e-03  9.2836490030948921e-03  1.5097114392051237e-02  2.2316713907324575e-02  3.1383841588521075e-02  4.2667106242789972e-02  5.6389283579662983e-02  7.2531544180440929e-02  9.0730357271225762e-02  1.1019615761289575e-01  1.2969350842903110e-01  1.4762165936573446e-01  1.6221431097039218e-01  1.7183771027482830e-01  1.7531961364990351e-01  1.7221174813416665e-01  1.6289682856112686e-01  1.4850108993357758e-01  1.3064294414508110e-01  1.1110310152624579e-01  9.1516109601446974e-02  7.3156964474796068e-02  5.6849465586049405e-02  4.2980333188079117e-02  3.1579921322379384e-02  2.2427829057255457e-02  1.5152190618483063e-02  9.3057893729394155e-03  4.4143269301779682e-03  0.0000000000000000e+00  0.0000000000000000e+00  4.1030036199556528e-03  8.6303082474107218e-03  1.4010485477731593e-02  2.0666492745199237e-02  2.8994160854493245e-02  3.9320057732036846e-02  5.1836140569366383e-02  6.6515131524377477e-02  8.3020497798329915e-02  1.0063663369503043e-01  1.1825371651784404e-01  1.3444061090298756e-01  1.4762165936573449e-01  1.5633903387607018e-01  1.5954228439829893e-01  1.5682074749537750e-01  1.4850108993357763e-01  1.3557461277335842e-01  1.1947907025249009e-01  1.0180813621412899e-01  8.4036021479881859e-02  6.7323364053193641e-02  5.2430071559373299e-02  3.9722962917743951e-02  2.9244604692173534e-02  2.0806438645726635e-02  1.4077892816660940e-02  8.6557040093574091e-03  4.1086357921460122e-03  0.0000000000000000e+00  0.0000000000000000e+00  3.7147597057821087e-03  7.8020700413031505e-03  1.2638026235318749e-02  1.8591071374314202e-02  2.6002218857847890e-02  3.5147954017970481e-02  4.6183985774151455e-02  5.9073653965708933e-02  7.3513106174704426e-02  8.8874858694201378e-02  1.0419823337007472e-01  1.1825371651784412e-01  1.2969350842903130e-01  1.3727249992536167e-01  1.4009135545639789e-01  1.3779224959082761e-01  1.3064294414508118e-01  1.1947907025249015e-01  1.0552362253940233e-01  9.0143087551986481e-02  7.4612851617883100e-02  5.9948277294082121e-02  4.6824994261086293e-02  3.5580167842118038e-02  2.6267615190020462e-02  1.8735794080483158e-02  1.2704176909900328e-02  7.8238301782579973e-03  3.7173872292799838e-03  0.0000000000000000e+00  0.0000000000000000e+00  3.2741322118212792e-03  6.8645462040252047e-03  1.1090326604878620e-02  1.6261230211835107e-02  2.2659988182905218e-02  3.0510691612939102e-02  3.9932149310296004e-02  5.0879798281182727e-02  6.3086393058543050e-02  7.6019010901050635e-02  8.8874858694201433e-02  1.0063663369503048e-01  1.1019615761289578e-01  1.1653301066339372e-01  1.1890975850015954e-01  1.1702920314619697e-01  1.1110310152624588e-01  1.0180813621412910e-01  9.0143087551986509e-02  7.7233162321271226e-02  6.4138847646331446e-02  5.1715068937541152e-02  4.0541189040512945e-02  3.0917044009987793e-02  2.2904370281948663e-02  1.6388926025284075e-02  1.1143084960301081e-02  6.8766736935219515e-03  3.2714440621723815e-03  0.0000000000000000e+00  0.0000000000000000e+00  2.8114332161389461e-03  5.8827852698080298e-03  9.4761785094809800e-03  1.3843381385572673e-02  1.9210427918191966e-02  2.5751531474753619e-02  3.3551774499483759e-02  4.2561820242359973e-02  5.2552989466511622e-02  6.3086393058543092e-02  7.3513106174704454e-02  8.3020497798329956e-02  9.0730357271225734e-02  9.5837909055362047e-02  9.7762315093679816e-02  9.6267602505749436e-02  9.1516109601447085e-02  8.4036021479881942e-02  7.4612851617883155e-02  6.4138847646331459e-02  5.3463579766930232e-02  4.3281195305810059e-02  3.4071392835923718e-02  2.6091934220200078e-02  1.9407854216361747e-02  1.3938619306298935e-02  9.5072731256017305e-03  5.8814576833527438e-03  2.8021045566520883e-03  0.0000000000000000e+00  0.0000000000000000e+00  2.3533666116822500e-03  4.9137246659728753e-03  7.8898869003927261e-03  1.1480044506479766e-02  1.5858805662148170e-02  2.1156343571624575e-02  2.7429564595239476e-02  3.4628117747607080e-02  4.2561820242359986e-02  5.0879798281182768e-02  5.9073653965709023e-02  6.6515131524377533e-02  7.2531544180440999e-02  7.6510239763220120e-02  7.8010365059794945e-02  7.6852218524849969e-02  7.3156964474796166e-02  6.7323364053193710e-02  5.9948277294082197e-02  5.1715068937541200e-02  4.3281195305810094e-02  3.5191324408507856e-02  2.7829500607748001e-02  2.1409916468652857e-02  1.5996191275438974e-02  1.1535567982187356e-02  7.8959606194910683e-03  4.8978352759433165e-03  2.3372736452430681e-03  0.0000000000000000e+00  0.0000000000000000e+00  1.9206821527304443e-03  4.0012321456448178e-03  6.4031776530769184e-03  9.2778643527393154e-03  1.2755875416310253e-02  1.6930876869595442e-02  2.1838065356136378e-02  2.7429564595239438e-02  3.3551774499483718e-02  3.9932149310295977e-02  4.6183985774151455e-02  5.1836140569366383e-02  5.6389283579662997e-02  5.9391921251654899e-02  6.0520620663104402e-02  5.9643684977441248e-02  5.6849465586049502e-02  5.2430071559373355e-02  4.6824994261086383e-02  4.0541189040512980e-02  3.4071392835923739e-02  2.7829500607748015e-02  2.2113246157297893e-02  1.7094730397285974e-02  1.2832273391898423e-02  9.2941586215956988e-03  6.3855112559731125e-03  3.9722077213779081e-03  1.8988001136092153e-03  0.0000000000000000e+00  0.0000000000000000e+00  1.5271092315640635e-03  3.1739617630980278e-03  5.0619805961301294e-03  7.3033970205787216e-03  9.9928944145398404e-03  1.3195478054056502e-02  1.6930876869595435e-02  2.1156343571624551e-02  2.5751531474753592e-02  3.0510691612939071e-02  3.5147954017970467e-02  3.9320057732036832e-02  4.2667106242789937e-02  4.4866266385485257e-02  4.5687589244715061e-02  4.5037919312526029e-02  4.2980333188079207e-02  3.9722962917743999e-02  3.5580167842118086e-02  3.0917044009987824e-02  2.6091934220200109e-02  2.1409916468652871e-02  1.7094730397285981e-02  1.3280102372180027e-02  1.0016463589494014e-02  7.2867727164378955e-03  5.0253270347731588e-03  3.1350958901300210e-03  1.5012006728572841e-03  0.0000000000000000e+00  0.0000000000000000e+00  1.1793986441636631e-03  2.4456070129566638e-03  3.8872620412963351e-03  5.5851519023996403e-03  7.6058487183109508e-03  9.9928944145398456e-03  1.2755875416310259e-02  1.5858805662148152e-02  1.9210427918191948e-02  2.2659988182905200e-02  2.6002218857847870e-02  2.8994160854493221e-02  3.1383841588521047e-02  3.2947120557006417e-02  3.3525397111095888e-02  3.3054969037197561e-02  3.1579921322379433e-02  2.9244604692173569e-02  2.6267615190020490e-02  2.2904370281948690e-02  1.9407854216361761e-02  1.5996191275438987e-02  1.2832273391898430e-02  1.0016463589494014e-02  7.5900350320205036e-03  5.5453082908808477e-03  3.8383706421456693e-03  2.4012329606901642e-03  1.1516386150482707e-03  0.0000000000000000e+00  0.0000000000000000e+00  8.7813202902661857e-04  1.8167799704598229e-03  2.8785120957533113e-03  4.1195554526738797e-03  5.5851519023996446e-03  7.3033970205787276e-03  9.2778643527393189e-03  1.1480044506479752e-02  1.3843381385572662e-02  1.6261230211835096e-02  1.8591071374314191e-02  2.0666492745199223e-02  2.2316713907324537e-02  2.3391078072260929e-02  2.3783733330217129e-02  2.3452641622588685e-02  2.2427829057255478e-02  2.0806438645726653e-02  1.8735794080483169e-02  1.6388926025284089e-02  1.3938619306298953e-02  1.1535567982187366e-02  9.2941586215957