<?xml version="1.0"?>
<VTKFile type="UnstructuredGrid"  version="0.1"  >
<UnstructuredGrid>
<Piece  NumberOfPoints="961" NumberOfCells="1800">
<Points>
<DataArray  type="Float64"  NumberOfComponents="3"  format="ascii">-2 -2 0  -1.866666666666667 -2 0  -1.733333333333333 -2 0  -1.6 -2 0  -1.466666666666667 -2 0  -1.333333333333333 -2 0  -1.2 -2 0  -1.066666666666667 -2 0  -0.9333333333333333 -2 0  -0.8 -2 0  -0.6666666666666667 -2 0  -0.5333333333333334 -2 0  -0.3999999999999999 -2 0  -0.2666666666666666 -2 0  -0.1333333333333333 -2 0  0 -2 0  0.1333333333333333 -2 0  0.2666666666666666 -2 0  0.3999999999999999 -2 0  0.5333333333333332 -2 0  0.6666666666666665 -2 0  0.7999999999999998 -2 0  0.9333333333333331 -2 0  1.066666666666667 -2 0  1.2 -2 0  1.333333333333333 -2 0  1.466666666666667 -2 0  1.6 -2 0  1.733333333333333 -2 0  1.866666666666667 -2 0  2 -2 0  -2 -1.866666666666667 0  -1.866666666666667 -1.866666666666667 0  -1.733333333333333 -1.866666666666667 0  -1.6 -1.866666666666667 0  -1.466666666666667 -1.866666666666667 0  -1.333333333333333 -1.866666666666667 0  -1.2 -1.866666666666667 0  -1.066666666666667 -1.866666666666667 0  -0.9333333333333333 -1.866666666666667 0  -0.8 -1.866666666666667 0  -0.6666666666666667 -1.866666666666667 0  -0.5333333333333334 -1.866666666666667 0  -0.3999999999999999 -1.866666666666667 0  -0.2666666666666666 -1.866666666666667 0  -0.1333333333333333 -1.866666666666667 0  0 -1.866666666666667 0  0.1333333333333333 -1.866666666666667 0  0.2666666666666666 -1.866666666666667 0  0.3999999999999999 -1.866666666666667 0  0.5333333333333332 -1.866666666666667 0  0.6666666666666665 -1.866666666666667 0  0.7999999999999998 -1.866666666666667 0  0.9333333333333331 -1.866666666666667 0  1.066666666666667 -1.866666666666667 0  1.2 -1.866666666666667 0  1.333333333333333 -1.866666666666667 0  1.466666666666667 -1.866666666666667 0  1.6 -1.866666666666667 0  1.733333333333333 -1.866666666666667 0  1.866666666666667 -1.866666666666667 0  2 -1.866666666666667 0  -2 -1.733333333333333 0  -1.866666666666667 -1.733333333333333 0  -1.733333333333333 -1.733333333333333 0  -1.6 -1.733333333333333 0  -1.466666666666667 -1.733333333333333 0  -1.333333333333333 -1.733333333333333 0  -1.2 -1.733333333333333 0  -1.066666666666667 -1.733333333333333 0  -0.9333333333333333 -1.733333333333333 0  -0.8 -1.733333333333333 0  -0.6666666666666667 -1.733333333333333 0  -0.5333333333333334 -1.733333333333333 0  -0.3999999999999999 -1.733333333333333 0  -0.2666666666666666 -1.733333333333333 0  -0.1333333333333333 -1.733333333333333 0  0 -1.733333333333333 0  0.1333333333333333 -1.733333333333333 0  0.2666666666666666 -1.733333333333333 0  0.3999999999999999 -1.733333333333333 0  0.5333333333333332 -1.733333333333333 0  0.6666666666666665 -1.733333333333333 0  0.7999999999999998 -1.733333333333333 0  0.9333333333333331 -1.733333333333333 0  1.066666666666667 -1.733333333333333 0  1.2 -1.733333333333333 0  1.333333333333333 -1.733333333333333 0  1.466666666666667 -1.733333333333333 0  1.6 -1.733333333333333 0  1.733333333333333 -1.733333333333333 0  1.866666666666667 -1.733333333333333 0  2 -1.733333333333333 0  -2 -1.6 0  -1.866666666666667 -1.6 0  -1.733333333333333 -1.6 0  -1.6 -1.6 0  -1.466666666666667 -1.6 0  -1.333333333333333 -1.6 0  -1.2 -1.6 0  -1.066666666666667 -1.6 0  -0.9333333333333333 -1.6 0  -0.8 -1.6 0  -0.6666666666666667 -1.6 0  -0.5333333333333334 -1.6 0  -0.3999999999999999 -1.6 0  -0.2666666666666666 -1.6 0  -0.1333333333333333 -1.6 0  0 -1.6 0  0.1333333333333333 -1.6 0  0.2666666666666666 -1.6 0  0.3999999999999999 -1.6 0  0.5333333333333332 -1.6 0  0.6666666666666665 -1.6 0  0.7999999999999998 -1.6 0  0.9333333333333331 -1.6 0  1.066666666666667 -1.6 0  1.2 -1.6 0  1.333333333333333 -1.6 0  1.466666666666667 -1.6 0  1.6 -1.6 0  1.733333333333333 -1.6 0  1.866666666666667 -1.6 0  2 -1.6 0  -2 -1.466666666666667 0  -1.866666666666667 -1.466666666666667 0  -1.733333333333333 -1.466666666666667 0  -1.6 -1.466666666666667 0  -1.466666666666667 -1.466666666666667 0  -1.333333333333333 -1.466666666666667 0  -1.2 -1.466666666666667 0  -1.066666666666667 -1.466666666666667 0  -0.9333333333333333 -1.466666666666667 0  -0.8 -1.466666666666667 0  -0.6666666666666667 -1.466666666666667 0  -0.5333333333333334 -1.466666666666667 0  -0.3999999999999999 -1.466666666666667 0  -0.2666666666666666 -1.466666666666667 0  -0.1333333333333333 -1.466666666666667 0  0 -1.466666666666667 0  0.1333333333333333 -1.466666666666667 0  0.2666666666666666 -1.466666666666667 0  0.3999999999999999 -1.466666666666667 0  0.5333333333333332 -1.466666666666667 0  0.6666666666666665 -1.466666666666667 0  0.7999999999999998 -1.466666666666667 0  0.9333333333333331 -1.466666666666667 0  1.066666666666667 -1.466666666666667 0  1.2 -1.466666666666667 0  1.333333333333333 -1.466666666666667 0  1.466666666666667 -1.466666666666667 0  1.6 -1.466666666666667 0  1.733333333333333 -1.466666666666667 0  1.866666666666667 -1.466666666666667 0  2 -1.466666666666667 0  -2 -1.333333333333333 0  -1.866666666666667 -1.333333333333333 0  -1.733333333333333 -1.333333333333333 0  -1.6 -1.333333333333333 0  -1.466666666666667 -1.333333333333333 0  -1.333333333333333 -1.333333333333333 0  -1.2 -1.333333333333333 0  -1.066666666666667 -1.333333333333333 0  -0.9333333333333333 -1.333333333333333 0  -0.8 -1.333333333333333 0  -0.6666666666666667 -1.333333333333333 0  -0.5333333333333334 -1.333333333333333 0  -0.3999999999999999 -1.333333333333333 0  -0.2666666666666666 -1.333333333333333 0  -0.1333333333333333 -1.333333333333333 0  0 -1.333333333333333 0  0.1333333333333333 -1.333333333333333 0  0.2666666666666666 -1.333333333333333 0  0.3999999999999999 -1.333333333333333 0  0.5333333333333332 -1.333333333333333 0  0.6666666666666665 -1.333333333333333 0  0.7999999999999998 -1.333333333333333 0  0.9333333333333331 -1.333333333333333 0  1.066666666666667 -1.333333333333333 0  1.2 -1.333333333333333 0  1.333333333333333 -1.333333333333333 0  1.466666666666667 -1.333333333333333 0  1.6 -1.333333333333333 0  1.733333333333333 -1.333333333333333 0  1.866666666666667 -1.333333333333333 0  2 -1.333333333333333 0  -2 -1.2 0  -1.866666666666667 -1.2 0  -1.733333333333333 -1.2 0  -1.6 -1.2 0  -1.466666666666667 -1.2 0  -1.333333333333333 -1.2 0  -1.2 -1.2 0  -1.066666666666667 -1.2 0  -0.9333333333333333 -1.2 0  -0.8 -1.2 0  -0.6666666666666667 -1.2 0  -0.5333333333333334 -1.2 0  -0.3999999999999999 -1.2 0  -0.2666666666666666 -1.2 0  -0.1333333333333333 -1.2 0  0 -1.2 0  0.1333333333333333 -1.2 0  0.2666666666666666 -1.2 0  0.3999999999999999 -1.2 0  0.5333333333333332 -1.2 0  0.6666666666666665 -1.2 0  0.7999999999999998 -1.2 0  0.9333333333333331 -1.2 0  1.066666666666667 -1.2 0  1.2 -1.2 0  1.333333333333333 -1.2 0  1.466666666666667 -1.2 0  1.6 -1.2 0  1.733333333333333 -1.2 0  1.866666666666667 -1.2 0  2 -1.2 0  -2 -1.066666666666667 0  -1.866666666666667 -1.066666666666667 0  -1.733333333333333 -1.066666666666667 0  -1.6 -1.066666666666667 0  -1.466666666666667 -1.066666666666667 0  -1.333333333333333 -1.066666666666667 0  -1.2 -1.066666666666667 0  -1.066666666666667 -1.066666666666667 0  -0.9333333333333333 -1.066666666666667 0  -0.8 -1.066666666666667 0  -0.6666666666666667 -1.066666666666667 0  -0.5333333333333334 -1.066666666666667 0  -0.3999999999999999 -1.066666666666667 0  -0.2666666666666666 -1.066666666666667 0  -0.1333333333333333 -1.066666666666667 0  0 -1.066666666666667 0  0.1333333333333333 -1.066666666666667 0  0.2666666666666666 -1.066666666666667 0  0.3999999999999999 -1.066666666666667 0  0.5333333333333332 -1.066666666666667 0  0.6666666666666665 -1.066666666666667 0  0.7999999999999998 -1.066666666666667 0  0.9333333333333331 -1.066666666666667 0  1.066666666666667 -1.066666666666667 0  1.2 -1.066666666666667 0  1.333333333333333 -1.066666666666667 0  1.466666666666667 -1.066666666666667 0  1.6 -1.066666666666667 0  1.733333333333333 -1.066666666666667 0  1.866666666666667 -1.066666666666667 0  2 -1.066666666666667 0  -2 -0.9333333333333333 0  -1.866666666666667 -0.9333333333333333 0  -1.733333333333333 -0.9333333333333333 0  -1.6 -0.9333333333333333 0  -1.466666666666667 -0.9333333333333333 0  -1.333333333333333 -0.9333333333333333 0  -1.2 -0.9333333333333333 0  -1.066666666666667 -0.9333333333333333 0  -0.9333333333333333 -0.9333333333333333 0  -0.8 -0.9333333333333333 0  -0.6666666666666667 -0.9333333333333333 0  -0.5333333333333334 -0.9333333333333333 0  -0.3999999999999999 -0.9333333333333333 0  -0.2666666666666666 -0.9333333333333333 0  -0.1333333333333333 -0.9333333333333333 0  0 -0.9333333333333333 0  0.1333333333333333 -0.9333333333333333 0  0.2666666666666666 -0.9333333333333333 0  0.3999999999999999 -0.9333333333333333 0  0.5333333333333332 -0.9333333333333333 0  0.6666666666666665 -0.9333333333333333 0  0.7999999999999998 -0.9333333333333333 0  0.9333333333333331 -0.9333333333333333 0  1.066666666666667 -0.9333333333333333 0  1.2 -0.9333333333333333 0  1.333333333333333 -0.9333333333333333 0  1.466666666666667 -0.9333333333333333 0  1.6 -0.9333333333333333 0  1.733333333333333 -0.9333333333333333 0  1.866666666666667 -0.9333333333333333 0  2 -0.9333333333333333 0  -2 -0.8 0  -1.866666666666667 -0.8 0  -1.733333333333333 -0.8 0  -1.6 -0.8 0  -1.466666666666667 -0.8 0  -1.333333333333333 -0.8 0  -1.2 -0.8 0  -1.066666666666667 -0.8 0  -0.9333333333333333 -0.8 0  -0.8 -0.8 0  -0.6666666666666667 -0.8 0  -0.5333333333333334 -0.8 0  -0.3999999999999999 -0.8 0  -0.2666666666666666 -0.8 0  -0.1333333333333333 -0.8 0  0 -0.8 0  0.1333333333333333 -0.8 0  0.2666666666666666 -0.8 0  0.3999999999999999 -0.8 0  0.5333333333333332 -0.8 0  0.6666666666666665 -0.8 0  0.7999999999999998 -0.8 0  0.9333333333333331 -0.8 0  1.066666666666667 -0.8 0  1.2 -0.8 0  1.333333333333333 -0.8 0  1.466666666666667 -0.8 0  1.6 -0.8 0  1.733333333333333 -0.8 0  1.866666666666667 -0.8 0  2 -0.8 0  -2 -0.6666666666666667 0  -1.866666666666667 -0.
[...]
<PointData  Scalars="f_1363"> 
<DataArray  type="Float64"  Name="f_1363"  format="ascii">0.0000000000000000e+00  0.0000000000000000e+00  0.0000000000000000e+00  0.0000000000000000e+00  0.0000000000000000e+00  0.0000000000000000e+00  0.0000000000000000e+00  0.0000000000000000e+00  0.0000000000000000e+00  0.0000000000000000e+00  0.0000000000000000e+00  0.0000000000000000e+00  0.0000000000000000e+00  0.0000000000000000e+00  0.0000000000000000e+00  0.0000000000000000e+00  0.0000000000000000e+00  0.0000000000000000e+00  0.0000000000000000e+00  0.0000000000000000e+00  0.0000000000000000e+00  0.0000000000000000e+00  0.0000000000000000e+00  0.0000000000000000e+00  0.0000000000000000e+00  0.0000000000000000e+00  0.0000000000000000e+00  0.0000000000000000e+00  0.0000000000000000e+00  0.0000000000000000e+00  0.0000000000000000e+00  0.0000000000000000e+00  7.5980836315995258e-05  1.5099247479486211e-04  2.2426885750273615e-04  2.9503390467035224e-04  3.6252730448310504e-04  4.2601906147172374e-04  4.8482005113529615e-04  5.3829076818694274e-04  5.8584896784378713e-04  6.2697642148830911e-04  6.6122484135326372e-04  6.8822096791823896e-04  7.0767079249147347e-04  7.1936288285728693e-04  7.2317078300918991e-04  7.1905446510622773e-04  7.0706082113188582e-04  6.8732319239801732e-04  6.6005994653145028e-04  6.2557212368633420e-04  5.8424018649722129e-04  5.3651992222625148e-04  4.8293756205628033e-04  4.2408420497826242e-04  3.6060967079415429e-04  2.9321598110149984e-04  2.2265084370125875e-04  1.4970199723050872e-04  7.5194746116656264e-05  0.0000000000000000e+00  0.0000000000000000e+00  1.5099247479486222e-04  3.0014348917587705e-04  4.4587480346724659e-04  5.8662542367383193e-04  7.2087673538943453e-04  8.4717405389688524e-04  9.6414532282900552e-04  1.0705177232451792e-03  1.1651325691623062e-03  1.2469586168889803e-03  1.3151037910850379e-03  1.3688252756970118e-03  1.4075378990276563e-03  1.4308207419560007e-03  1.4384219082351835e-03  1.4302614115558976e-03  1.4064321533584386e-03  1.3671989868630681e-03  1.3129958856529778e-03  1.2444212589454524e-03  1.1622314803787269e-03  1.0673327232688374e-03  9.6077122446206061e-04  8.4372213482825380e-04  7.1747716510133506e-04  5.8343131794092622e-04  4.4306914405736286e-04  2.9795122638369583e-04  1.4970199723050875e-04  0.0000000000000000e+00  0.0000000000000000e+00  2.2426885750273629e-04  4.4587480346724680e-04  6.6243706748285610e-04  8.7161866771128796e-04  1.0711542746080006e-03  1.2588775445393206e-03  1.4327467891826564e-03  1.5908687052969897e-03  1.7315200698350822e-03  1.8531673064238721e-03  1.9544838049828221e-03  2.0343648628483530e-03  2.0919401169097337e-03  2.1265833488621983e-03  2.1379195663771724e-03  2.1258292892396371e-03  2.0904499995103446e-03  2.0321747472409777e-03  1.9516479372567778e-03  1.8497583573695556e-03  1.7276295437676067e-03  1.5866076153651224e-03  1.4282467463546944e-03  1.2542924867974042e-03  1.0666631875706548e-03  8.6742984113245629e-04  6.5879470983261487e-04  4.4306914405736286e-04  2.2265084370125878e-04  0.0000000000000000e+00  0.0000000000000000e+00  2.9503390467035246e-04  5.8662542367383225e-04  8.7161866771128817e-04  1.1469238494445941e-03  1.4095510729385970e-03  1.6566439833802806e-03  1.8855121189402418e-03  2.0936613347150865e-03  2.2788219130409045e-03  2.4389740721210305e-03  2.5723706257248734e-03  2.6775565715769093e-03  2.7533854103953493e-03  2.7990320260793205e-03  2.8140019910111239e-03  2.7981371982291610e-03  2.7516177633515135e-03  2.6749601825510122e-03  2.5690117776227617e-03  2.4349415043866387e-03  2.2742272456368856e-03  2.0886397540894933e-03  1.8802234539429797e-03  1.6512743513143206e-03  1.4043153424932141e-03  1.1420692396489113e-03  8.6742984113245673e-04  5.8343131794092655e-04  2.9321598110150000e-04  0.0000000000000000e+00  0.0000000000000000e+00  3.6252730448310552e-04  7.2087673538943507e-04  1.0711542746080008e-03  1.4095510729385974e-03  1.7323843696655141e-03  2.0361378835106045e-03  2.3175007691021549e-03  2.5734044523762693e-03  2.8010568237694464e-03  2.9979733705639486e-03  3.1620048941939935e-03  3.2913615057303881e-03  3.3846326351808583e-03  3.4408028333666177e-03  3.4592631911296301e-03  3.4398182498856377e-03  3.3826883296130981e-03  3.2885072544135232e-03  3.1583155107862272e-03  2.9935489286779375e-03  2.7960230291556010e-03  2.5679132341703175e-03  2.3117311821628439e-03  2.0302974365308162e-03  1.7267109091904074e-03  1.4043153424932147e-03  1.0666631875706557e-03  7.1747716510133571e-04  3.6060967079415472e-04  0.0000000000000000e+00  0.0000000000000000e+00  4.2601906147172471e-04  8.4717405389688697e-04  1.2588775445393221e-03  1.6566439833802823e-03  2.0361378835106058e-03  2.3932209813843893e-03  2.7239976333290703e-03  3.0248577746054090e-03  3.2925168592570740e-03  3.5240522794401370e-03  3.7169358288739710e-03  3.8690618321736113e-03  3.9787706158288987e-03  4.0448670511804077e-03  4.0666339567067174e-03  4.0438402067665127e-03  3.9767434562955218e-03  3.8660874550204951e-03  3.7130939894264585e-03  3.5194495547639861e-03  3.2872869214999926e-03  3.0191618194099516e-03  2.7180250164133622e-03  2.3871901162713731e-03  2.0302974365308171e-03  1.6512743513143221e-03  1.2542924867974053e-03  8.4372213482825466e-04  4.2408420497826296e-04  0.0000000000000000e+00  0.0000000000000000e+00  4.8482005113529740e-04  9.6414532282900834e-04  1.4327467891826593e-03  1.8855121189402446e-03  2.3175007691021566e-03  2.7239976333290712e-03  3.1005645607177284e-03  3.4430890769693023e-03  3.7478296902986952e-03  4.0114572244461071e-03  4.2310916818536761e-03  4.4043342001991830e-03  4.5292937263325238e-03  4.6046080946904730e-03  4.6294592632873466e-03  4.6035825294775444e-03  4.5272696193420572e-03  4.4013656178130906e-03  4.2272597802826741e-03  4.0068703390370589e-03  3.7426234879179379e-03  3.4374267945686335e-03  3.0946373498226985e-03  2.7180250164133613e-03  2.3117311821628439e-03  1.8802234539429805e-03  1.4282467463546946e-03  9.6077122446206116e-04  4.8293756205628049e-04  0.0000000000000000e+00  0.0000000000000000e+00  5.3829076818694393e-04  1.0705177232451816e-03  1.5908687052969923e-03  2.0936613347150891e-03  2.5734044523762719e-03  3.0248577746054099e-03  3.4430890769693032e-03  3.8235282253013601e-03  4.1620174047130448e-03  4.4548569451165095e-03  4.6988461976011390e-03  4.8913189768482294e-03  5.0301731498420309e-03  5.1138940203893698e-03  5.1415712323033920e-03  5.1129089911099834e-03  5.0282294839752656e-03  4.8884694590679133e-03  4.6951700073514244e-03  4.4504596702873381e-03  4.1570310744888936e-03  3.8181113673581147e-03  3.4374267945686322e-03  3.0191618194099481e-03  2.5679132341703153e-03  2.0886397540894924e-03  1.5866076153651211e-03  1.0673327232688368e-03  5.3651992222625104e-04  0.0000000000000000e+00  0.0000000000000000e+00  5.8584896784378811e-04  1.1651325691623084e-03  1.7315200698350850e-03  2.2788219130409084e-03  2.8010568237694503e-03  3.2925168592570766e-03  3.7478296902986965e-03  4.1620174047130448e-03  4.5305511513851126e-03  4.8494009857415719e-03  5.1150803307619085e-03  5.3246845290017223e-03  5.4759230292044467e-03  5.5671448251051678e-03  5.5973568432906556e-03  5.5662350606140451e-03  5.4741282185464119e-03  5.3220540905981988e-03  5.1116883479765465e-03  4.8453461562590408e-03  4.5259567203314657e-03  4.1570310744888954e-03  3.7426234879179357e-03  3.2872869214999900e-03  2.7960230291555989e-03  2.2742272456368856e-03  1.7276295437676067e-03  1.1622314803787271e-03  5.8424018649722140e-04  0.0000000000000000e+00  0.0000000000000000e+00  6.2697642148831019e-04  1.2469586168889820e-03  1.8531673064238745e-03  2.4389740721210348e-03  2.9979733705639551e-03  3.5240522794401418e-03  4.0114572244461105e-03  4.4548569451165112e-03  4.8494009857415728e-03  5.1907730388563019e-03  5.4752385215498097e-03  5.6996858272093205e-03  5.8616607659464810e-03  5.9593937848047536e-03  5.9918196429033137e-03  5.9585893057863158e-03  5.8600739160545893e-03  5.6973607922844857e-03  5.4722415035462612e-03  5.1871921606997393e-03  4.8453461562590434e-03  4.4504596702873416e-03  4.0068703390370606e-03  3.5194495547639856e-03  2.9935489286779366e-03  2.4349415043866396e-03  1.8497583573695573e-03  1.2444212589454533e-03  6.2557212368633431e-04  0.0000000000000000e+00  0.0000000000000000e+00  6.6122484135326491e-04  1.3151037910850405e-03  1.9544838049828255e-03  2.5723706257248782e-03  3.1620048941939974e-03  3.7169358288739766e-03  4.2310916818536822e-03  4.6988461976011425e-03  5.1150803307619111e-03  5.4752385215498106e-03  5.7753788808862939e-03  6.0122167012112097e-03  6.1831607817760485e-03  6.2863421381940286e-03  6.3206347539232740e-03  6.2856681248893986e-03  6.1818314460883733e-03  6.0102693890283750e-03  5.7728695194062306e-03  5.4722415035462638e-03  5.1116883479765509e-03  4.6951700073514331e-03  4.2272597802826767e-03  3.7130939894264602e-03  3.1583155107862289e-03  2.5690117776227647e-03  1.9516479372567806e-03  1.3129958856529784e-03  6.6005994653145061e-04  0.0000000000000000e+00  0.0000000000000000e+00  6.8822096791823983e-04  1.3688252756970142e-03  2.0343648628483560e-03  2.6775565715769123e-03  3.2913615057303916e-03  3.8690618321736165e-03  4.4043342001991890e-03  4.8913189768482338e-03  5.3246845290017266e-03  5.6996858272093205e-03  6.0122167012112071e-03  6.2588551424044535e-03  6.4369011233372294e-03  6.5444064877361804e-03  6.5801965554367035e-03  6.5438831835108943e-03  6.4358691262581024e-03  6.2573436407178168e-03  6.0102693890283741e-03  5.6973607922844857e-03  5.3220540905982005e-03  4.8884694590679185e-03  4.4013656178130923e-03  3.8660874550204929e-03  3.2885072544135215e-03  2.6749601825510117e-03  2.0321747472409782e-03  1.3671989868630685e-03  6.8732319239801776e-04  0.0000000000000000e+00  0.0000000000000000e+00  7.0767079249147444e-04  1.4075378990276587e-03  2.0919401169097371e-03  2.7533854103953528e-03  3.3846326351808604e-03  3.9787706158289022e-03  4.5292937263325282e-03  5.0301731498420361e-03  5.4759230292044511e-03  5.8616607659464845e-03  6.1831607817760485e-03  6.4369011233372320e-03  6.6201023672876405e-03  6.7307583679567214e-03  6.7676584827845634e-03  6.7304010100423268e-03  6.6193976773398361e-03  6.4358691262580954e-03  6.1818314460883681e-03  5.8600739160545832e-03  5.4741282185464092e-03  5.0282294839752656e-03  4.5272696193420529e-03  3.9767434562955149e-03  3.3826883296130912e-03  2.7516177633515101e-03  2.0904499995103428e-03  1.4064321533584373e-03  7.0706082113188528e-04  0.0000000000000000e+00  0.0000000000000000e+00  7.1936288285728844e-04  1.4308207419560038e-03  2.1265833488622017e-03  2.7990320260793244e-03  3.4408028333666224e-03  4.0448670511804121e-03  4.6046080946904790e-03  5.1138940203893767e-03  5.5671448251051730e-03  5.9593937848047597e-03  6.2863421381940329e-03  6.5444064877361865e-03  6.7307583679567249e-03  6.8433555170903130e-03  6.8809644822174819e-03  6.8431742886750210e-03  6.7304010100423190e-03  6.5438831835108804e-03  6.2856681248893848e-03  5.9585893057863036e-03  5.5662350606140365e-03  5.1129089911099773e-03  4.6035825294775332e-03  4.0438402067665023e-03  3.4398182498856281e-03  2.7981371982291545e-03  2.1258292892396349e-03  1.4302614115558946e-03  7.1905446510622621e-04  0.0000000000000000e+00  0.0000000000000000e+00  7.2317078300919132e-04  1.4384219082351859e-03  2.1379195663771755e-03  2.8140019910111265e-03  3.4592631911296370e-03  4.0666339567067243e-03  4.6294592632873553e-03  5.1415712323033989e-03  5.5973568432906625e-03  5.9918196429033215e-03  6.3206347539232792e-03  6.5801965554367113e-03  6.7676584827845703e-03  6.8809644822174845e-03  6.9188717494515798e-03  6.8809644822174732e-03  6.7676584827845478e-03  6.5801965554366810e-03  6.3206347539232445e-03  5.9918196429032955e-03  5.5973568432906434e-03  5.1415712323033816e-03  4.6294592632873336e-03  4.0666339567067026e-03  3.4592631911296175e-03  2.8140019910111148e-03  2.1379195663771655e-03  1.4384219082351787e-03  7.2317078300918763e-04  0.0000000000000000e+00  0.0000000000000000e+00  7.1905446510622914e-04  1.4302614115559004e-03  2.1258292892396432e-03  2.7981371982291657e-03  3.4398182498856442e-03  4.0438402067665196e-03  4.6035825294775505e-03  5.1129089911099912e-03  5.5662350606140555e-03  5.9585893057863253e-03  6.2856681248894108e-03  6.5438831835109056e-03  6.7304010100423372e-03  6.8431742886750323e-03  6.8809644822174776e-03  6.8433555170903009e-03  6.7307583679567032e-03  6.5444064877361570e-03  6.2863421381939982e-03  5.9593937848047319e-03  5.5671448251051496e-03  5.1138940203893550e-03  4.6046080946904547e-03  4.0448670511803887e-03  3.4408028333666016e-03  2.7990320260793092e-03  2.1265833488621900e-03  1.4308207419559955e-03  7.1936288285728422e-04  0.0000000000000000e+00  0.0000000000000000e+00  7.0706082113188755e-04  1.4064321533584416e-03  2.0904499995103498e-03  2.7516177633515192e-03  3.3826883296131029e-03  3.9767434562955253e-03  4.5272696193420624e-03  5.0282294839752717e-03  5.4741282185464188e-03  5.8600739160546006e-03  6.1818314460883846e-03  6.4358691262581163e-03  6.6193976773398500e-03  6.7304010100423311e-03  6.7676584827845573e-03  6.7307583679567075e-03  6.6201023672876180e-03  6.4369011233372025e-03  6.1831607817760190e-03  5.8616607659464550e-03  5.4759230292044259e-03  5.0301731498420136e-03  4.5292937263325022e-03  3.9787706158288770e-03  3.3846326351808405e-03  2.7533854103953359e-03  2.0919401169097246e-03  1.4075378990276498e-03  7.0767079249147010e-04  0.0000000000000000e+00  0.0000000000000000e+00  6.8732319239801917e-04  1.3671989868630715e-03  2.0321747472409821e-03  2.6749601825510169e-03  3.2885072544135280e-03  3.8660874550204998e-03  4.4013656178130958e-03  4.8884694590679212e-03  5.3220540905982048e-03  5.6973607922844952e-03  6.0102693890283871e-03  6.2573436407178306e-03  6.4358691262581128e-03  6.5438831835108935e-03  6.5801965554366931e-03  6.5444064877361648e-03  6.4369011233372077e-03  6.2588551424044292e-03  6.0122167012111741e-03  5.6996858272092858e-03  5.3246845290016928e-03  4.8913189768482069e-03  4.4043342001991604e-03  3.8690618321735887e-03  3.2913615057303691e-03  2.6775565715768941e-03  2.0343648628483413e-03  1.3688252756970038e-03  6.8822096791823484e-04  0.0000000000000000e+00  0.0000000000000000e+00  6.6005994653145180e-04  1.3129958856529810e-03  1.9516479372567819e-03  2.5690117776227669e-03  3.1583155107862341e-03  3.7130939894264654e-03  4.2272597802826802e-03  4.6951700073514339e-03  5.1116883479765543e-03  5.4722415035462690e-03  5.7728695194062471e-03  6.0102693890283889e-03  6.1818314460883863e-03  6.2856681248893986e-03  6.3206347539232601e-03  6.2863421381940104e-03  6.1831607817760242e-03  6.0122167012111793e-03  5.7753788808862609e-03  5.4752385215497759e-03  5.1150803307618798e-03  4.6988461976011156e-03  4.2310916818536510e-03  3.7169358288739493e-03  3.1620048941939753e-03  2.5723706257248587e-03  1.9544838049828108e-03  1.3151037910850295e-03  6.6122484135325949e-04  0.0000000000000000e+00  0.0000000000000000e+00  6.2557212368633550e-04  1.2444212589454555e-03  1.8497583573695597e-03  2.4349415043866426e-03  2.9935489286779409e-03  3.5194495547639913e-03  4.0068703390370641e-03  4.4504596702873425e-03  4.8453461562590477e-03  5.1871921606997462e-03  5.4722415035462725e-03  5.6973607922844970e-03  5.8600739160545954e-03  5.9585893057863149e-03  5.9918196429033042e-03  5.9593937848047389e-03  5.8616607659464602e-03  5.6996858272092927e-03  5.4752385215497811e-03  5.1907730388562742e-03  4.8494009857415451e-03  4.4548569451164860e-03  4.0114572244460871e-03  3.5240522794401175e-03  2.9979733705639330e-03  2.4389740721210171e-03  1.8531673064238617e-03  1.2469586168889729e-03  6.2697642148830542e-04  0.0000000000000000e+00  0.0000000000000000e+00  5.8424018649722248e-04  1.1622314803787295e-03  1.7276295437676100e-03  2.2742272456368886e-03  2.7960230291556032e-03  3.2872869214999952e-03  3.7426234879179383e-03  4.1570310744888954e-03  4.5259567203314683e-03  4.8453461562590495e-03  5.1116883479765552e-03  5.3220540905982074e-03  5.4741282185464153e-03  5.5662350606140451e-03  5.5973568432906460e-03  5.5671448251051530e-03  5.4759230292044320e-03  5.3246845290017006e-03  5.1150803307618850e-03  4.8494009857415477e-03  4.5305511513850918e-03  4.1620174047130266e-03  3.7478296902986761e-03  3.2925168592570554e-03  2.8010568237694304e-03  2.2788219130408919e-03  1.7315200698350729e-03  1.1651325691622999e-03  5.8584896784378388e-04  0.0000000000000000e+00  0.0000000000000000e+00  5.3651992222625235e-04  1.0673327232688396e-03  1.5866076153651246e-03  2.0886397540894959e-03  2.5679132341703196e-03  3.0191618194099529e-03  3.4374267945686361e-03  3.8181113673581174e-03  4.1570310744888988e-03  4.4504596702873460e-03  4.6951700073514365e-03  4.8884694590679246e-03  5.0282294839752734e-03  5.1129089911099860e-03  5.1415712323033920e-03  5.1138940203893637e-03  5.0301731498420214e-03  4.8913189768482147e-03  4.6988461976011234e-03  4.4548569451164930e-03  4.1620174047130301e-03  3.8235282253013471e-03  3.4430890769692859e-03  3.0248577746053904e-03  2.5734044523762541e-03  2.0936613347150757e-03  1.5908687052969817e-03  1.0705177232451740e-03  5.3829076818694014e-04  0.0000000000000000e+00  0.0000000000000000e+00  4.8293756205628114e-04  9.6077122446206235e-04  1.4282467463546957e-03  1.8802234539429810e-03  2.3117311821628456e-03  2.7180250164133639e-03  3.0946373498227002e-03  3.4374267945686339e-03  3.7426234879179366e-03  4.0068703390370632e-03  4.2272597802826802e-03  4.4013656178130949e-03  4.5272696193420590e-03  4.6035825294775436e-03  4.6294592632873457e-03  4.6046080946904660e-03  4.5292937263325126e-03  4.4043342001991682e-03  4.2310916818536623e-03  4.0114572244460914e-03  3.7478296902986805e-03  3.4430890769692872e-03  3.1005645607177098e-03  2.7239976333290525e-03  2.3175007691021406e-03  1.8855121189402309e-03  1.4327467891826489e-03  9.6414532282900107e-04  4.8482005113529371e-04  0.0000000000000000e+00  0.0000000000000000e+00  4.2408420497826312e-04  8.4372213482825477e-04  1.2542924867974059e-03  1.6512743513143226e-03  2.0302974365308179e-03  2.3871901162713749e-03  2.7180250164133622e-03  3.0191618194099499e-03  3.2872869214999900e-03  3.5194495547639878e-03  3.7130939894264633e-03  3.8660874550204977e-03  3.9767434562955209e-03  4.0438402067665110e-03  4.0666339567067122e-03  4.0448670511803982e-03  3.9787706158288883e-03  3.8690618321735979e-03  3.7169358288739562e-03  3.5240522794401227e-03  3.2925168592570601e-03  3.0248577746053939e-03  2.7239976333290534e-03  2.3932209813843728e-03  2.0361378835105906e-03  1.6566439833802706e-03  1.2588775445393132e-03  8.4717405389688036e-04  4.2601906147172135e-04  0.0000000000000000e+00  0.0000000000000000e+00  3.6060967079415483e-04  7.1747716510133582e-04  1.0666631875706559e-03  1.4043153424932154e-03  1.7267109091904085e-03  2.0302974365308171e-03  2.3117311821628434e-03  2.5679132341703157e-03  2.7960230291556002e-03  2.9935489286779388e-03  3.1583155107862311e-03  3.2885072544135245e-03  3.3826883296130981e-03  3.4398182498856351e-03  3.4592631911296258e-03  3.4408028333666094e-03  3.3846326351808487e-03  3.2913615057303760e-03  3.1620048941939797e-03  2.9979733705639377e-03  2.8010568237694343e-03  2.5734044523762567e-03  2.3175007691021415e-03  2.0361378835105914e-03  1.7323843696655024e-03  1.4095510729385877e-03  1.0711542746079934e-03  7.2087673538942965e-04  3.6252730448310265e-04  0.0000000000000000e+00  0.0000000000000000e+00  2.9321598110150016e-04  5.8343131794092698e-04  8.6742984113245727e-04  1.1420692396489122e-03  1.4043153424932162e-03  1.6512743513143221e-03  1.8802234539429799e-03  2.0886397540894924e-03  2.2742272456368856e-03  2.4349415043866405e-03  2.5690117776227652e-03  2.6749601825510143e-03  2.7516177633515144e-03  2.7981371982291597e-03  2.8140019910111208e-03  2.7990320260793148e-03  2.7533854103953420e-03  2.6775565715768984e-03  2.5723706257248626e-03  2.4389740721210210e-03  2.2788219130408962e-03  2.0936613347150778e-03  1.8855121189402