<?xml version="1.0"?>
<VTKFile type="UnstructuredGrid"  version="0.1"  >
<UnstructuredGrid>
<Piece  NumberOfPoints="6572" NumberOfCells="12876">
<Points>
<DataArray  type="Float64"  NumberOfComponents="3"  format="ascii">-0.5 -0.05 0  -0.5 -0.1 0  0.5 -0.1 0  0.5 -0.05 0  -0.5 0.1 0  -0.5 0.05 0  0.5 0.05 0  0.5 0.1 0  -2 2 0  -2 -2 0  2 -2 0  2 2 0  0 2 0  -2 0 0  0 -2 0  2 0 0  1 -2 0  1 2 0  -2 -1 0  -1 2 0  -1 -2 0  2 -1 0  2 1 0  -2 1 0  -0.9875000000000002 0.9875000000000002 0  -0.5 -1.11578947368421 0  0.5 1.11578947368421 0  0.9875000000000002 -0.9875000000000002 0  1.215263157894737 0.6078947368421052 0  -1.215263157894737 -0.6078947368421052 0  1.263870018115942 -0.2580502717391305 0  -1.263870018115942 0.2580502717391305 0  0.2624210225090557 -1.26813284911377 0  -0.2245435086383705 0.828947931874698 0  -0.5 1.499845679012346 0  -1.339856651916016 -1.339856651916015 0  -1.48765243902439 1.48765243902439 0  2 -1.5 0  1.5 -2 0  1.339856651916016 1.339856651916015 0  0 -0.6065344866943706 0  1.409733606557377 -1.409733606557377 0  0.002425847580325186 1.314133963238193 0  0.5505069831618845 -0.6498975726293873 0  -2 0.5 0  -1.496595018029886 0.763303539579235 0  1.496595018029886 -0.763303539579235 0  0.7676708361180966 -1.496541100788666 0  0 0.1 0  0 0.05 0  0 -0.05 0  0 -0.1 0  0.2820208562589841 0.6078947368421052 0  -0.1845086972928314 -1.520860964477933 0  0.5 2 0  -0.8464131160304079 -1.503375415277291 0  0.8464131160304079 1.503375415277291 0  -0.6773083923937882 -0.6078947368421053 0  -0.6737765699861553 0.5821861094442247 0  -0.5 -2 0  -1.5 2 0  -0.5 2 0  -1.5 -2 0  -2 -1.5 0  -2 -0.5 0  2 0.5 0  -2 1.5 0  2 1.5 0  1.5 2 0  2 -0.5 0  0.5 -2 0  -1.519870775199425 -0.1906561490373437 0  1.519870775199425 0.1906561490373437 0  -0.9939777175549533 1.506020400481783 0  0.7486420070768606 0.5074363095319545 0  0.9641356286487277 0.09634294434706217 0  0.387913904239398 1.557894736842105 0  0.9738888909772279 1.025566133292773 0  -0.9738888909772279 -1.025566133292773 0  -0.9945209368181251 -0.1611674333471061 0  1.634587172155742 0.75 0  -1.545514528694712 -0.9282648475173086 0  0.9668556387809299 -0.5625987121351099 0  1.674342732327935 -0.25 0  -1.674342732327935 0.25 0  -1.068172784259008 0.6009852112266799 0  -0.8694738038430896 0.2392511699566754 0  -0.5705574490717764 1.078879083969348 0  -0.3047990928039502 0.4427560667597128 0  -0.1075057889717762 -1.13549050821247 0  0.1854181141880004 -1.653503305379233 0  0.6273343332708574 -1.133949735200244 0  0.1330088823965764 0.9573664081105835 0  1.25 1.711151025743146 0  1.624942206256123 1.605370231804357 0  -1.176551227785936 -1.673337944865388 0  1.646564605755867 1.12454623797772 0  -1.584513874929714 -0.5576588781625826 0  -1.707212479429397 -1.266235486401709 0  -1.644731318711407 -1.644731318711407 0  -1.632835821004814 1.127215175628698 0  1.736196026276176 -1.25 0  1.114230040927798 -1.641951265587105 0  -0.3383183370806071 -0.7744487036020068 0  0.1791009788497655 -0.9183380563840826 0  -0.3080773236645009 -0.4105953475435172 0  0.2935266929592152 -0.3962324254844067 0  -1.231398729302726 1.243753709721665 0  -0.25 1.749922839506173 0  -1.250223164288576 1.749697045895151 0  -2 1.75 0  -1.75 2 0  1.67170661056565 -1.67170661056565 0  -0.75 2 0  1.322818808206545 0.9894796661885663 0  1.090106896413496 -1.307126710143881 0  1.342004564552385 -1.071581934008695 0  0.06522508338991045 1.641511587355606 0  -0.5189471127413987 -1.644086318665407 0  0.8301505457563337 -0.2336865676666604 0  0.5647629159828189 0.7872707112758366 0  -0.306442797828737 1.25100760599427 0  0.01754617716829729 0.422503884658934 0  -2 -0.75 0  0.6407570334585839 1.7290530228865 0  0.504746746910422 -1.67963878602617 0  -0.7492102834882646 1.325219062884026 0  -0.75 -2 0  0.75 -2 0  0.25 0.1 0  0.25 0.05 0  0.25 -0.05 0  0.25 -0.1 0  -1.247476031388126 -0.9050920691256498 0  -1.740664935305259 1.625 0  -0.25 -2 0  1.694954927587857 0.446183539385964 0  -2 -0.25 0  1.018700819518282 0.3869729778848313 0  -1.704470578783679 0.5478599033447854 0  1.704470578783679 -0.5478599033447854 0  1.270219373571801 -0.5613501237741357 0  0.8472792464036878 0.7725814515285219 0  1.259232495308614 0.04197692411284754 0  0.25 2 0  -0.7446490621858453 1.69011676707758 0  1.388910862107759 -1.732846907705419 0  -1.34039668238111 0.52902571297631 0  -1.224371119907784 0.8352630378296049 0  -2 0.75 0  -1.751220132992699 0.875435946079316 0  1.711549421974989 -0.959807438281233 0  0.5063382380383106 -1.401598798293989 0  0.4796646243263861 0.3919961300526477 0  0.02052442509931868 0.6995976042567982 0  0.7296944613383192 -0.8695804456928333 0  0.4558224713364171 -0.9100482007859436 0  0.5725063903106175 -0.3706087028531898 0  -0.9462857751442626 -0.4629035072207758 0  -0.6941362309962676 -0.317123104139462 0  -0.9684228098079888 -0.7438258982500234 0  2 1.75 0  1.75 2 0  2 0.25 0  2 -0.75 0  1.278187771935747 0.3115400843976657 0  -0.5922917565027117 -0.8631119943233796 0  -0.0839801001062405 -0.8621128033901271 0  0.2455894247519949 1.200854405604458 0  0.262587277385364 -0.663043380907532 0  -0.5980430761497784 -1.376761392864884 0  -0.1093795330713982 1.070271102574772 0  -1.249496534318867 -0.3130773920250274 0  -1.247034659690879 -0.02727073486568179 0  -2 1.25 0  -0.9281889544590982 -1.750146844040549 0  0.9834443260463035 1.733058482719494 0  -1.094775389357246 -1.426566516102129 0  1.112968789984104 1.481467958300943 0  0.7665462276933417 1.226158144596315 0  -1.770909334378698 -0.375 0  1.728603146972327 0.01642411847188653 0  -1.728603146972327 -0.01642411847188653 0  1.761316719341747 1.370604750369291 0  1.237254598779853 -0.8261536637604744 0  -0.7556005205250198 -1.168666934356776 0  -0.3122516978838742 -1.294957552906404 0  -0.05676569670178869 -1.746764376049461 0  0.05767511359695768 -1.427599893807705 0  -0.4297045225664292 0.6701480029939691 0  -0.5488711402236763 0.3547941732099684 0  -0.73997926234113 0.8550154820945663 0  -1.506721290325993 1.74351544868925 0  0.875 -1.762874586087524 0  1.472075326462355 -0.4054080349204134 0  -0.25 -0.05 0  -0.25 0.05 0  -0.25 -0.1 0  -0.25 0.1 0  -1.466143615521345 0.1029579352495879 0  -1.715353660163548 1.369911604300872 0  1.466181188020228 -0.10487370730003 0  -0.7682785812736894 -0.012086038882336 0  -0.05526835264809966 -0.3532672433471853 0  1.465729310288652 0.5585425529334505 0  -0.1548760540778576 1.514020457580807 0  0.604364413519442 1.422996617960961 0  -1.75 -2 0  -2 -1.75 0  -1.413986854053256 1.001688937633378 0  -0.5018216782012743 1.749922839506173 0  1.25 -2 0  0.75 2 0  -1.25 2 0  -0.25 2 0  2 -1.25 0  -2 -1.25 0  -1.25 -2 0  1.75 -2 0  1.25 2 0  0.25 -2 0  -2 0.25 0  2 -0.25 0  2 0.75 0  2 -1.75 0  2 1.25 0  0.8652765376920856 -1.203019143002233 0  -0.9838357627275672 1.753170554351702 0  -1.240585577119691 1.490668129035045 0  -0.982232708070524 1.236709905404412 0  -1.786825762491236 -0.875 0  0.739373828457782 0 0  0.7638032205076292 0.2533565992403486 0  0.709666625458708 0.9864794035072344 0  -1.149440757540249 -1.191365415959905 0  1.085545776658987 0.811511812351643 0  1.165440178803035 1.172735288644873 0  -0.2962272251699825 -1.733104650480386 0  -1.416747441780366 -1.758969049883952 0  1.078517718453516 -0.1108658247031818 0  1.037466385027053 -0.3403856060454009 0  0.3349608215634475 0.8369725248139381 0  0.2466126646159963 0.3770648908666414 0  0.268976072227778 1.763355927066161 0  -1.072509336230008 0.1261843154559341 0  -1.410459068542118 -0.7370821030154899 0  -1.494896769666115 -1.160148830617909 0  -1.795837328873755 -0.6460952481890528 0  0.2020810256926819 1.425084922554051 0  1.376958780768645 0.7682688908822151 0  1.817293586077871 0.875 0  0.7787869578353218 -0.4479000160558438 0  -1.470907735458679 0.3458741130977815 0  1.515620410940369 -1.21266671137167 0  -0.4399129861776312 0.8952652843513728 0  -1.447953434691042 -1.536634535936381 0  1.775580332712668 0.2362991818665352 0  1.817293586077871 0.6283977088279621 0  0.9794534551538072 1.299950760628357 0  -0.2975822880898809 -1.002705975199446 0  -0.794621034814791 1.104333805421707 0  -0.538699195520714 1.289935680441774 0  1.6316444309907 -1.449795786132327 0  -0.9206739663862504 -1.303553266365546 0  1.025722770199554 -0.7726907388345955 0  0.7627151098396803 -0.6597268298139333 0  -0.625 -1.828193225112275 0  1.553315953182781 1.31782099631043 0  0.9452353882222714 0.5852208659895486 0  0.4049941275169467 1.344199097980102 0  -0.125 0.2685300137707772 0  -0.4540029053848218 -0.5816503984117777 0  -1.439467605043294 1.210803922423807 0  -0.9413822788923184 0.7761980333794491 0  -1.385672742222082 -0.4782860124627957 0  -0.7758064291369466 -0.961448589770057 0  -0.1354537645955561 0.5627112178206028 0  1.774959976219912 1.774959976219912 0  1.469952979681248 1.773393310281498 0  -1.060909878642463 0.3695354187738585 0  -0.8589260867790621 0.4605372573141048 0  1.781343803802223 -0.7525735139944156 0  1.837171366163968 -0.3750000000000001 0  -1.829694021791995 0.3847402061504781 0  0.375 -1.837932119708621 0  -1.212719761918724 1.039769272853888 0  0.3064391919213724 -1.477306759514066 0  0.4147622900591051 -1.1191419714622 0  -0.3871367104974726 -1.486372763015778 0  0.5573499237510148 0.5820689913068572 0  0.625 -1.841636334438256 0  1.429147780144838 1.159911932432328 0  -1.701422360143094 -1.061339168143588 0  -0.5070939503083192 -0.3885874379148457 0  0.1322021154922433 -0.2686225392871915 0  -0.6737578799549989 0.198756119463029 0  -0.3753755265155169 0.25598774941555 0  1.517167094898384 0.9198146105871752 0  -0.7166548033598091 -1.652797629698222 0  0.06763312425106033 -1.229211249318691 0  0.125 -1.844031256887676 0  -0.1174637996258788 -1.333879152701484 0  1.463520842314 1.492883638124108 0  1.821009690895555 1.583077607547358 0  0.6836793815156578 -1.320595517793754 0  -1.814847113364309 1.059074005726146 0  1.510962105965464 -0.9634080689364488 0  -1.625214858632429 -1.447104555207508 0  -1.595939150458238 -1.8319691584
[...]
<PointData  Vectors="f_276"> 
<DataArray  type="Float64"  Name="f_276"  NumberOfComponents="3" format="ascii">-5.0599587392003555e+09 8.1032408237515612e+09 0.0000000000000000e+00  -6.1925664382339592e+09 2.1614113662107021e+07 0.0000000000000000e+00  6.3727974316623945e+09 -9.4546418869165868e+07 0.0000000000000000e+00  4.4783511755238123e+09 7.9834380561922979e+09 0.0000000000000000e+00  6.1560861546700106e+09 3.5577867388223320e+07 0.0000000000000000e+00  4.4077612385543556e+09 8.0190218698614082e+09 0.0000000000000000e+00  -5.1279628104333773e+09 8.0084096004165440e+09 0.0000000000000000e+00  -5.6836401151816568e+09 -3.5221013853661954e+08 0.0000000000000000e+00  -5.1966539049927754e+01 -2.6865547838848232e+02 0.0000000000000000e+00  -2.1975373714849997e+01 -4.9175889526243787e+02 0.0000000000000000e+00  -2.5735700292528531e+02 -7.8132991044844697e+00 0.0000000000000000e+00  1.3757291413634246e+02 -7.3552645950905358e+01 0.0000000000000000e+00  -9.2765717927311216e+03 -2.3372113334500018e+08 0.0000000000000000e+00  -3.4600175430937802e+03 1.9841347711190958e+03 0.0000000000000000e+00  1.8779936196466119e+03 -2.3365915416944650e+08 0.0000000000000000e+00  -1.5386479502065017e+03 -2.7013655684050209e+03 0.0000000000000000e+00  -7.5194574724296263e+02 -1.3391590917932069e+08 0.0000000000000000e+00  2.2468716841137996e+02 -1.3391750978440493e+08 0.0000000000000000e+00  -9.3985596314881131e+07 7.3320063835600540e+03 0.0000000000000000e+00  -2.0126462951073447e+02 -1.3391658998674469e+08 0.0000000000000000e+00  1.9658002777866770e+01 -1.3391615019977197e+08 0.0000000000000000e+00  9.3986503532740265e+07 -4.1934518575933007e+03 0.0000000000000000e+00  -9.3971206924907833e+07 -8.8925536453055647e+03 0.0000000000000000e+00  9.4003117985073850e+07 -7.0269110717475851e+03 0.0000000000000000e+00  1.9509604681112328e+08 -1.0455461395068371e+08 0.0000000000000000e+00  -1.5274360700749874e+08 -2.7110994190229648e+08 0.0000000000000000e+00  -1.5275613073574311e+08 -2.7114656289872283e+08 0.0000000000000000e+00  1.9506497861455727e+08 -1.0454521667697391e+08 0.0000000000000000e+00  -2.0394686460809517e+08 4.0383641423513167e+07 0.0000000000000000e+00  -2.0392112414185500e+08 4.0424946008349769e+07 0.0000000000000000e+00  1.2770053710580207e+08 1.6669240194266081e+08 0.0000000000000000e+00  1.2768843502244285e+08 1.6683485449826956e+08 0.0000000000000000e+00  6.7075704880104497e+07 -2.9666351605905050e+08 0.0000000000000000e+00  1.6146153771159935e+08 -4.7931870756776500e+08 0.0000000000000000e+00  6.4496624503907546e+07 -2.2375020654867083e+08 0.0000000000000000e+00  -9.3882522229572177e+07 -7.0150641202169910e+07 0.0000000000000000e+00  6.7649472606228113e+07 -5.6652696727696136e+07 0.0000000000000000e+00  5.7110279096835107e+07 6.1807796757371489e+03 0.0000000000000000e+00  -8.0963060700778010e+02 -6.2184076815781146e+07 0.0000000000000000e+00  -9.3870973751087889e+07 -7.0166716520949140e+07 0.0000000000000000e+00  -3.0901536361878221e+04 -7.4601242024231839e+08 0.0000000000000000e+00  8.0795295306909174e+07 -6.3899593102623180e+07 0.0000000000000000e+00  -6.0594254220841068e+05 -3.0571543109928185e+08 0.0000000000000000e+00  4.4642826583095974e+08 -3.1521228915366155e+08 0.0000000000000000e+00  7.8759854379756346e+07 -8.2897915259982728e+03 0.0000000000000000e+00  1.3250082971268794e+08 7.0283899846934862e+06 0.0000000000000000e+00  1.3256192641124476e+08 7.0262766134788273e+06 0.0000000000000000e+00  7.9592426640598774e+07 -1.7562355429113361e+08 0.0000000000000000e+00  -9.2539461713430681e+05 -1.6335268562798011e+09 0.0000000000000000e+00  -6.7310563264988456e+05 1.5271717680713552e+10 0.0000000000000000e+00  -5.6693708055561618e+05 1.5271759149031433e+10 0.0000000000000000e+00  -1.6216038364065526e+05 -1.6337539728898675e+09 0.0000000000000000e+00  -3.3888578349934709e+08 -6.2458954170904362e+08 0.0000000000000000e+00  -2.6177449076557957e+07 -2.5958164761408910e+08 0.0000000000000000e+00  2.3430002604361257e+03 -2.0318369135186172e+08 0.0000000000000000e+00  -7.9653815470851392e+07 -1.6061134183301795e+08 0.0000000000000000e+00  -7.9664198293983087e+07 -1.6060540515494728e+08 0.0000000000000000e+00  -4.7247332972399473e+08 -1.7458875635120800e+08 0.0000000000000000e+00  5.0044372564051026e+08 -1.6812860410445482e+08 0.0000000000000000e+00  2.6178242576504465e+04 -2.0316597905068594e+08 0.0000000000000000e+00  -2.6342193351699739e+03 -6.2185134944155402e+07 0.0000000000000000e+00  -4.9802352006435058e+03 -2.0316790672606575e+08 0.0000000000000000e+00  -3.5181424898060800e+03 -6.2187956813530475e+07 0.0000000000000000e+00  -5.7100967488737822e+07 -7.3393574243483163e+03 0.0000000000000000e+00  -7.8758036566957951e+07 -2.6181328037870659e+04 0.0000000000000000e+00  -7.8755079580701023e+07 4.7576098912382686e+03 0.0000000000000000e+00  5.7107471214420602e+07 8.9836818787584725e+03 0.0000000000000000e+00  -5.7102596559222333e+07 1.0868593506838024e+04 0.0000000000000000e+00  1.3532091834992709e+03 -6.2180705180443838e+07 0.0000000000000000e+00  7.8725092632312074e+07 -2.1254923001398758e+04 0.0000000000000000e+00  5.1572751925206094e+03 -2.0317010128696901e+08 0.0000000000000000e+00  -5.5974357297084197e+07 9.7790858847731307e+07 0.0000000000000000e+00  -5.5944716476940699e+07 9.7819246340410531e+07 0.0000000000000000e+00  7.8925352888481095e+07 -1.3342888527927992e+08 0.0000000000000000e+00  -5.2765010304939193e+08 -4.2642706473681100e+07 0.0000000000000000e+00  -1.5090435086237910e+08 4.7055608153642708e+08 0.0000000000000000e+00  -4.5917384463515766e+07 -2.3481917657640821e+08 0.0000000000000000e+00  -1.8635439922009411e+08 -1.1347020344727111e+08 0.0000000000000000e+00  -1.8637391331582204e+08 -1.1337431503474897e+08 0.0000000000000000e+00  -2.0732920390799239e+08 3.8508469720587295e+08 0.0000000000000000e+00  -1.1421115118960795e+08 8.7233184061271157e+06 0.0000000000000000e+00  -1.2034208380861053e+08 -1.3054144527856667e+07 0.0000000000000000e+00  3.3027240006814337e+08 3.3107362741254501e+07 0.0000000000000000e+00  5.6007226628260016e+07 5.7023101659163155e+07 0.0000000000000000e+00  5.6011589921589464e+07 5.7045954107650623e+07 0.0000000000000000e+00  2.6672060947006521e+08 3.1755172007587589e+07 0.0000000000000000e+00  4.3859564607736892e+08 4.0251075462683684e+08 0.0000000000000000e+00  1.7547867084086093e+08 -2.5194068280993727e+08 0.0000000000000000e+00  5.5457116784025681e+08 -8.1690400097963428e+08 0.0000000000000000e+00  -3.9144472356570005e+07 -3.5455307038475394e+08 0.0000000000000000e+00  1.7787522305730112e+07 -2.4453177240157616e+08 0.0000000000000000e+00  1.6203067292421952e+08 -2.2710943748136634e+08 0.0000000000000000e+00  -7.2665480088328600e+07 -4.2909823383790094e+08 0.0000000000000000e+00  -4.2030362815997094e+07 -9.5076598288198709e+07 0.0000000000000000e+00  -4.9581045832283311e+07 -4.2557039607101694e+07 0.0000000000000000e+00  -4.8752858486985974e+07 -1.0561566479095578e+08 0.0000000000000000e+00  -9.8991093225882769e+07 -2.2585090658221796e+07 0.0000000000000000e+00  -1.1163801155403575e+08 3.5439259429930791e+07 0.0000000000000000e+00  -8.4100344570518807e+07 -2.4225132915907662e+07 0.0000000000000000e+00  -4.4471642611310102e+07 -4.0821122164373077e+07 0.0000000000000000e+00  9.9589763063656211e+07 -2.3820135736907411e+07 0.0000000000000000e+00  8.4496598441872865e+07 -2.1087961190675553e+07 0.0000000000000000e+00  5.4503965688072056e+07 -1.1493404475466847e+08 0.0000000000000000e+00  -2.5851239145677987e+08 -4.5483397118350714e+08 0.0000000000000000e+00  1.0592395543758662e+08 -4.4064095841501820e+08 0.0000000000000000e+00  -6.0834054472396946e+08 -8.7148357548606098e+08 0.0000000000000000e+00  6.0075513708564746e+08 -9.2240024918107522e+08 0.0000000000000000e+00  1.1549424813475330e+08 -8.0568425961497590e+07 0.0000000000000000e+00  1.6436594428107437e+07 -2.3309320770525241e+08 0.0000000000000000e+00  3.6356090363749497e+07 -9.5520313220407575e+07 0.0000000000000000e+00  2.9595536875493526e+07 1.8180633667483430e+03 0.0000000000000000e+00  -3.2828855475977780e+03 -3.0228859918780729e+07 0.0000000000000000e+00  4.0810640665427729e+07 -3.7935144714316897e+07 0.0000000000000000e+00  1.9911565104293825e+03 -1.7082677605156332e+08 0.0000000000000000e+00  -1.4343355907851174e+08 -4.0084843004281029e+07 0.0000000000000000e+00  1.1309471266167058e+08 -1.0972061215547341e+08 0.0000000000000000e+00  1.3066612373606344e+08 -4.8059577298783243e+07 0.0000000000000000e+00  -6.6446734832453690e+06 -2.5059279271181113e+08 0.0000000000000000e+00  -4.4106803633810401e+07 -2.1084393789732578e+08 0.0000000000000000e+00  5.1239597004634702e+08 4.3979278337877309e+08 0.0000000000000000e+00  -3.2576527447386616e+08 -2.8962534523118132e+08 0.0000000000000000e+00  7.9825369333613500e+07 -2.9309003056541783e+08 0.0000000000000000e+00  -3.2586077484946966e+07 -1.0342006362446942e+09 0.0000000000000000e+00  -9.4937638849136591e+07 6.8044487418301369e+03 0.0000000000000000e+00  -3.7016183155358985e+07 -1.8982454524602404e+08 0.0000000000000000e+00  3.8476808553165950e+07 -2.1084872175355354e+08 0.0000000000000000e+00  1.1512575445509586e+08 -1.8405725917312831e+08 0.0000000000000000e+00  3.2357272172972935e+03 -1.7081529971236500e+08 0.0000000000000000e+00  -7.0762780772062051e+03 -1.7081382818128216e+08 0.0000000000000000e+00  -4.5607133448988491e+08 -1.9921460084106493e+09 0.0000000000000000e+00  -2.5364712019533131e+08 1.4809417639694082e+10 0.0000000000000000e+00  2.5095156352299073e+08 1.4808378017949759e+10 0.0000000000000000e+00  4.5270064850407857e+08 -1.9958543017833190e+09 0.0000000000000000e+00  -1.6660062981100520e+08 -3.6163699756978624e+07 0.0000000000000000e+00  4.5458036566077776e+07 -2.9143907580623608e+07 0.0000000000000000e+00  1.1573202603531689e+04 -2.2564612340906498e+08 0.0000000000000000e+00  -8.6492279124102980e+07 3.6786621175743066e+07 0.0000000000000000e+00  -4.5087878866726138e+07 5.2119146168413204e+02 0.0000000000000000e+00  -3.0641046381222624e+08 1.6959235957211307e+08 0.0000000000000000e+00  9.6608619485345647e+07 2.6106470880112093e+07 0.0000000000000000e+00  9.6673606452085808e+07 2.6107333197990671e+07 0.0000000000000000e+00  1.8432561975298259e+08 5.6396532789632149e+07 0.0000000000000000e+00  -3.0119011323677450e+08 -1.1121914272176293e+08 0.0000000000000000e+00  -2.3832976205894485e+07 2.1528807193352017e+08 0.0000000000000000e+00  -4.5014122801020407e+04 -2.2560625327715799e+08 0.0000000000000000e+00  4.5600539904761367e+07 -1.7495905581783551e+08 0.0000000000000000e+00  3.6969999278891861e+07 -7.5487302398840740e+07 0.0000000000000000e+00  1.6051772347554782e+08 6.2384688148861229e+07 0.0000000000000000e+00  1.8084218669316205e+08 -2.4957743487805698e+07 0.0000000000000000e+00  9.4919371358051807e+07 1.1825708458965964e+04 0.0000000000000000e+00  1.0416736398989019e+08 -1.9019322410522304e+06 0.0000000000000000e+00  1.0450930591554253e+08 -8.3924860444664322e+06 0.0000000000000000e+00  8.2439058819520295e+07 -2.3179134920448640e+08 0.0000000000000000e+00  -9.0023690093570042e+08 -4.9779854168525702e+08 0.0000000000000000e+00  -2.0973355571445536e+07 -6.3838333894496870e+08 0.0000000000000000e+00  2.7364953669402504e+08 -1.8817083563277718e+08 0.0000000000000000e+00  2.2777598562182128e+08 -3.3266063230218726e+08 0.0000000000000000e+00  9.4677424847430098e+08 -2.0811374966081807e+08 0.0000000000000000e+00  -3.6832420990808195e+08 1.0287975941918138e+08 0.0000000000000000e+00  -8.4158881488823164e+08 1.8297081185549784e+08 0.0000000000000000e+00  -2.7387599684632468e+08 -5.3515140787477702e+07 0.0000000000000000e+00  -2.9591962473892540e+07 5.5284564843332655e+03 0.0000000000000000e+00  -2.3054752100351129e+03 -3.0229833631261628e+07 0.0000000000000000e+00  -4.5077843214499295e+07 -4.0882589013941806e+03 0.0000000000000000e+00  9.4949009370723888e+07 -1.1710670705814775e+04 0.0000000000000000e+00  -1.4106893534270635e+08 1.4394623357432577e+08 0.0000000000000000e+00  -2.7865872697891831e+08 -2.6475858586371633e+08 0.0000000000000000e+00  -5.8338966116476066e+07 -4.9417926855147308e+08 0.0000000000000000e+00  -7.3673292755491123e+07 -3.1587633213799864e+08 0.0000000000000000e+00  2.7832219880453396e+08 -5.8641307352881396e+08 0.0000000000000000e+00  -9.5639667337852001e+07 -2.1544848164890194e+08 0.0000000000000000e+00  4.6265615788520470e+07 -3.7947000792349440e+08 0.0000000000000000e+00  -1.5186349275084016e+08 1.5222071786263207e+08 0.0000000000000000e+00  -1.6080811678825043e+07 2.2318575987975490e+08 0.0000000000000000e+00  7.9825833654117346e+07 1.2258934657008440e+04 0.0000000000000000e+00  -3.8081456356312171e+07 -1.4512732537162194e+08 0.0000000000000000e+00  -4.0845450720478781e+07 -1.3639688152652270e+08 0.0000000000000000e+00  -9.0969158758390680e+07 -1.1366772320242968e+08 0.0000000000000000e+00  -8.0900030099345967e+07 -1.1209459228039882e+08 0.0000000000000000e+00  -1.4041761602548933e+08 -1.8187515902064908e+08 0.0000000000000000e+00  -7.0809886610540420e+07 3.1810564827837043e+07 0.0000000000000000e+00  -3.6256381005835491e+06 5.4157375770580374e+07 0.0000000000000000e+00  -3.6607475660513216e+06 5.4110800572498240e+07 0.0000000000000000e+00  -7.2588903311572343e+07 -2.2277298904577136e+07 0.0000000000000000e+00  1.7920098590552795e+08 -2.1287340091336958e+07 0.0000000000000000e+00  -1.5647556671462169e+08 -1.8558822256770104e+08 0.0000000000000000e+00  -7.3323070066796035e+07 -2.8291902718866527e+08 0.0000000000000000e+00  -3.9079528575536436e+06 -2.4185114577292955e+08 0.0000000000000000e+00  1.0654433527970364e+07 -2.8070158110180390e+08 0.0000000000000000e+00  3.9059730324568081e+08 -4.3715189894103038e+08 0.0000000000000000e+00  1.0180878579475799e+09 -2.6736268830659217e+08 0.0000000000000000e+00  2.8048931448266828e+08 -1.8136485000964379e+08 0.0000000000000000e+00  3.3946109865301378e+07 -5.9724768271643452e+07 0.0000000000000000e+00  3.5832420568702124e+07 -1.5344745631311521e+08 0.0000000000000000e+00  1.1189877003190182e+08 7.5334292258484125e+07 0.0000000000000000e+00  -2.5367513670829096e+08 1.4810209309575201e+10 0.0000000000000000e+00  2.5064624487489310e+08 1.4809185165563620e+10 0.0000000000000000e+00  -4.5764003225703102e+08 -1.9918182386303656e+09 0.0000000000000000e+00  4.4905365387946332e+08 -1.9943599236086364e+09 0.0000000000000000e+00  3.4749680551975146e+07 1.2173663342678286e+08 0.0000000000000000e+00  7.3880771621069402e+07 -2.6844429088399198e+07 0.0000000000000000e+00  3.5333395394397251e+07 1.2153686710293333e+08 0.0000000000000000e+00  -6.2065072356613532e+07 1.0621181906661966e+09 0.0000000000000000e+00  -1.1143325161741854e+08 -1.1659412195720291e+09 0.0000000000000000e+00  -1.3217612576001766e+08 4.4953660383348018e+07 0.0000000000000000e+00  2.2499959255126175e+07 -2.6246143860838518e+08 0.0000000000000000e+00  -8.6540331801396072e+07 -2.1075976948582354e+08 0.0000000000000000e+00  -1.3312660359611439e+03 -3.0226615915517468e+07 0.0000000000000000e+00  -2.9590276022960763e+07 5.3204959173758016e+03 0.0000000000000000e+00  1.3012066309195122e+08 -3.1587656803899307e+07 0.0000000000000000e+00  2.9315112862044606e+07 -2.0798011249452490e+08 0.0000000000000000e+00  -3.0888697048589183e+03 -9.6894236257256597e+07 0.0000000000000000e+00  -6.3032819983908303e+02 -1.7082510501363623e+08 0.0000000000000000e+00  -1.6062263484583016e+03 -9.6898615002033606e+07 0.0000000000000000e+00  -3.4605393124177795e+03 -2.2565748321309268e+08 0.0000000000000000e+00  7.9822483604539692e+07 -8.9975036026274702e+03 0.0000000000000000e+00  -7.9823146125925198e+07 1.5156631055543408e+04 0.0000000000000000e+00  -1.4925085213687682e+03 -9.6894889858419329e+07 0.0000000000000000e+00  -1.2139204084026862e+03 -3.0223899233688790e+07 0.0000000000000000e+00  1.9279187507934621e+03 -9.6892367620876983e+07 0.0000000000000000e+00  -4.7776870069958077e+03 -2.2561842972657666e+08 0.0000000000000000e+00  4.5074757987637088e+07 2.5908752111830786e+03 0.0000000000000000e+00  4.5086896814695284e+07 -1.5169335656555990e+04 0.0000000000000000e+00  -9.4929224721749097e+07 5.0510930039609748e+03 0.0000000000000000e+00  2.9591448028350051e+07 5.3349638593991040e+03 0.0000000000000000e+00  -7.9847696627222300e+07 5.5614621204567163e+02 0.0000000000000000e+00  1.4586000182888332e+08 -1.5544221739053711e+08 0.0000000000000000e+00  3.7662739633464493e+07 -1.3634537057355422e+08 0.0000000000000000e+00  7.5580907325226665e+07 -9.1618677763901547e+07 0.0000000000000000e+00  1.3312481905000503e+08 -1.2840684901570672e+08 0.0000000000000000e+00  -1.0208470048592681e+08 -1.4605563141998239e+06 0.0000000000000000e+00  -5.5980842548456778e+04 1.2203367567645776e+09 0.0000000000000000e+00  -6.9018841565537250e+08 4.1672055133626598e+08 0.0000000000000000e+00  -2.2044709342543775e+08 -2.0235284726047394e+08 0.0000000000000000e+00  -1.3106803713126826e+08 -9.0725034445094720e+07 0.0000000000000000e+00  -2.1953473852244228e+08 -4.2981070395831637e+07 0.0000000000000000e+00  -1.3313602857722194e+08 -8.6180884424284384e+07 0.0000000000000000e+00  -2.0539561118109684e+07 -2.3052480768276554e+08 0.0000000000000000e+00  -3.3017036907874003e+07 -7.1998652565731451e+07 0.0000000000000000e+00  1.0957925046529552e+08 3.3295953620939749e+08 0.0000000000000000e+00  2.8170967951783860e+08 2.0384774030196673e+08 0.0000000000000000e+00  -2.2070951899791104e+08 -4.2383542601570708e+08 0.0000000000000000e+00  -5.1963388645106298e+08 -1.0245556448167404e+09 0.0000000000000000e+00  -1.6570335125083804e+07 -2.3089114202056688e+08 0.0000000000000000e+00  1.2584237308671986e+08 3.3171784220670283e+08 0.0000000000000000e+00  -1.4817092882734737e+08 1.0148463780890863e+07 0.0000000000000000e+00  -1.0614061595603514e+08 -3.8743773383429639e+07 0.0000000000000000e+00  -9.6608721456401005e+07 1.1804489591453211e+07 0.0000000000000000e+00  -3.6463502665888533e+07 -2.7277808779052484e+08 0.0000000000000000e+00  -1.5375290866267273e+08 2.8685920058465316e+06 0.0000000000000000e+00  -1.0055522305411862e+08 -1.1399553304420032e+06 0.0000000000000000e+00  5.5012047097288251e+08 4.5515634701278210e+07 0.0000000000000000e+00  1.0082851947361323e+08 8.6889525556806862e+07 0.0000000000000000e+00  9.9096531485714287e+07 -4.0226281151230335e+07 0.0000000000000000e+00  2.3077753601030797e+08 -3.4513287450820416e+08 0.0000000000000000e+00  -6.2479124771494024e+07 -6.3326699763411775e+07 0.0000000000000000e+00  -4.7621999454966456e+07 3.8552208018302038e+07 0.0000000000000000e+00  -9.4350772624503464e+07 1.1571056485819742e+07 0.0000000000000000e+00  -1.1940175886900899e+08 -1.3171054723457547e+08 0.0000000000000000e+00  -1.3648772889927331e+08 -3.6756002810919917e+08 0.0000000000000000e+00  1.7588641961109722e+08 -1.7330316006442934e+08 0.0000000000000000e+00  1.0968418601292460e+08 -2.3675960702096084e+08 0.0000000000000000e+00  6.7733640479834720e+07 -3.8137253412767313e+07 0.0000000000000000e+00  -1.2033716798144317e+08 -1.4460537712130669e+08 0.0000000000000000e+00  2.4628485505305037e+08 -4.6162153875964500e+07 0.0000000000000000e+00  3.9512927166453212e+08 -1.2248124511026834e+08 0.0000000000000000e+00  -2.2695733490039181e+07 -1.8958876983273625e+08 0.0000000000000000e+00  -8.5520609335911423e+07 -4.1982936182004094e+07 0.0000000000000000e+00  -3.3744455581545341e+08 1.2723625760489313e+07 0.0000000000000000e+00  -8.0648863353696778e+07 -2.5795237081066099e+08 0.0000000000000000e+00  2.6995636084539473e+08 -1.3475814175801542e+09 0.0000000000000000e+00  -5.0472182207548845e+08 -4.5167417655512261e+08 0.0000000000000000e+00  1.0453733859030230e+08 -4.8708251598356724e+07 0.0000000000000000e+00  2.7172495505523819e+08 -7.3480237286901966e+07 0.0000000000000000e+00  -1.4256408826331007e+08 7.1590302946134895e+07 0.0000000000000000e+00  -2.2826900835676464e+08 -1.7405522696977648e+08 0.0000000000000000e+00  1.9032655649970493e+08 -7.7627002981591177e+08 0.0000000000000000e+00  -2.7409947544690132e+07 -2.6472712430677276e+07 0.0000000000000000e+00  -3.0420779917744856e+07 -6.4966720097064912e+07 0.0000000000000000e+00  2.70115