<?xml version="1.0"?>
<VTKFile type="UnstructuredGrid"  version="0.1"  >
<UnstructuredGrid>
<Piece  NumberOfPoints="6572" NumberOfCells="12876">
<Points>
<DataArray  type="Float64"  NumberOfComponents="3"  format="ascii">-0.5 -0.05 0  -0.5 -0.1 0  0.5 -0.1 0  0.5 -0.05 0  -0.5 0.1 0  -0.5 0.05 0  0.5 0.05 0  0.5 0.1 0  -2 2 0  -2 -2 0  2 -2 0  2 2 0  0 2 0  -2 0 0  0 -2 0  2 0 0  1 -2 0  1 2 0  -2 -1 0  -1 2 0  -1 -2 0  2 -1 0  2 1 0  -2 1 0  -0.9875000000000002 0.9875000000000002 0  -0.5 -1.11578947368421 0  0.5 1.11578947368421 0  0.9875000000000002 -0.9875000000000002 0  1.215263157894737 0.6078947368421052 0  -1.215263157894737 -0.6078947368421052 0  1.263870018115942 -0.2580502717391305 0  -1.263870018115942 0.2580502717391305 0  0.2624210225090557 -1.26813284911377 0  -0.2245435086383705 0.828947931874698 0  -0.5 1.499845679012346 0  -1.339856651916016 -1.339856651916015 0  -1.48765243902439 1.48765243902439 0  2 -1.5 0  1.5 -2 0  1.339856651916016 1.339856651916015 0  0 -0.6065344866943706 0  1.409733606557377 -1.409733606557377 0  0.002425847580325186 1.314133963238193 0  0.5505069831618845 -0.6498975726293873 0  -2 0.5 0  -1.496595018029886 0.763303539579235 0  1.496595018029886 -0.763303539579235 0  0.7676708361180966 -1.496541100788666 0  0 0.1 0  0 0.05 0  0 -0.05 0  0 -0.1 0  0.2820208562589841 0.6078947368421052 0  -0.1845086972928314 -1.520860964477933 0  0.5 2 0  -0.8464131160304079 -1.503375415277291 0  0.8464131160304079 1.503375415277291 0  -0.6773083923937882 -0.6078947368421053 0  -0.6737765699861553 0.5821861094442247 0  -0.5 -2 0  -1.5 2 0  -0.5 2 0  -1.5 -2 0  -2 -1.5 0  -2 -0.5 0  2 0.5 0  -2 1.5 0  2 1.5 0  1.5 2 0  2 -0.5 0  0.5 -2 0  -1.519870775199425 -0.1906561490373437 0  1.519870775199425 0.1906561490373437 0  -0.9939777175549533 1.506020400481783 0  0.7486420070768606 0.5074363095319545 0  0.9641356286487277 0.09634294434706217 0  0.387913904239398 1.557894736842105 0  0.9738888909772279 1.025566133292773 0  -0.9738888909772279 -1.025566133292773 0  -0.9945209368181251 -0.1611674333471061 0  1.634587172155742 0.75 0  -1.545514528694712 -0.9282648475173086 0  0.9668556387809299 -0.5625987121351099 0  1.674342732327935 -0.25 0  -1.674342732327935 0.25 0  -1.068172784259008 0.6009852112266799 0  -0.8694738038430896 0.2392511699566754 0  -0.5705574490717764 1.078879083969348 0  -0.3047990928039502 0.4427560667597128 0  -0.1075057889717762 -1.13549050821247 0  0.1854181141880004 -1.653503305379233 0  0.6273343332708574 -1.133949735200244 0  0.1330088823965764 0.9573664081105835 0  1.25 1.711151025743146 0  1.624942206256123 1.605370231804357 0  -1.176551227785936 -1.673337944865388 0  1.646564605755867 1.12454623797772 0  -1.584513874929714 -0.5576588781625826 0  -1.707212479429397 -1.266235486401709 0  -1.644731318711407 -1.644731318711407 0  -1.632835821004814 1.127215175628698 0  1.736196026276176 -1.25 0  1.114230040927798 -1.641951265587105 0  -0.3383183370806071 -0.7744487036020068 0  0.1791009788497655 -0.9183380563840826 0  -0.3080773236645009 -0.4105953475435172 0  0.2935266929592152 -0.3962324254844067 0  -1.231398729302726 1.243753709721665 0  -0.25 1.749922839506173 0  -1.250223164288576 1.749697045895151 0  -2 1.75 0  -1.75 2 0  1.67170661056565 -1.67170661056565 0  -0.75 2 0  1.322818808206545 0.9894796661885663 0  1.090106896413496 -1.307126710143881 0  1.342004564552385 -1.071581934008695 0  0.06522508338991045 1.641511587355606 0  -0.5189471127413987 -1.644086318665407 0  0.8301505457563337 -0.2336865676666604 0  0.5647629159828189 0.7872707112758366 0  -0.306442797828737 1.25100760599427 0  0.01754617716829729 0.422503884658934 0  -2 -0.75 0  0.6407570334585839 1.7290530228865 0  0.504746746910422 -1.67963878602617 0  -0.7492102834882646 1.325219062884026 0  -0.75 -2 0  0.75 -2 0  0.25 0.1 0  0.25 0.05 0  0.25 -0.05 0  0.25 -0.1 0  -1.247476031388126 -0.9050920691256498 0  -1.740664935305259 1.625 0  -0.25 -2 0  1.694954927587857 0.446183539385964 0  -2 -0.25 0  1.018700819518282 0.3869729778848313 0  -1.704470578783679 0.5478599033447854 0  1.704470578783679 -0.5478599033447854 0  1.270219373571801 -0.5613501237741357 0  0.8472792464036878 0.7725814515285219 0  1.259232495308614 0.04197692411284754 0  0.25 2 0  -0.7446490621858453 1.69011676707758 0  1.388910862107759 -1.732846907705419 0  -1.34039668238111 0.52902571297631 0  -1.224371119907784 0.8352630378296049 0  -2 0.75 0  -1.751220132992699 0.875435946079316 0  1.711549421974989 -0.959807438281233 0  0.5063382380383106 -1.401598798293989 0  0.4796646243263861 0.3919961300526477 0  0.02052442509931868 0.6995976042567982 0  0.7296944613383192 -0.8695804456928333 0  0.4558224713364171 -0.9100482007859436 0  0.5725063903106175 -0.3706087028531898 0  -0.9462857751442626 -0.4629035072207758 0  -0.6941362309962676 -0.317123104139462 0  -0.9684228098079888 -0.7438258982500234 0  2 1.75 0  1.75 2 0  2 0.25 0  2 -0.75 0  1.278187771935747 0.3115400843976657 0  -0.5922917565027117 -0.8631119943233796 0  -0.0839801001062405 -0.8621128033901271 0  0.2455894247519949 1.200854405604458 0  0.262587277385364 -0.663043380907532 0  -0.5980430761497784 -1.376761392864884 0  -0.1093795330713982 1.070271102574772 0  -1.249496534318867 -0.3130773920250274 0  -1.247034659690879 -0.02727073486568179 0  -2 1.25 0  -0.9281889544590982 -1.750146844040549 0  0.9834443260463035 1.733058482719494 0  -1.094775389357246 -1.426566516102129 0  1.112968789984104 1.481467958300943 0  0.7665462276933417 1.226158144596315 0  -1.770909334378698 -0.375 0  1.728603146972327 0.01642411847188653 0  -1.728603146972327 -0.01642411847188653 0  1.761316719341747 1.370604750369291 0  1.237254598779853 -0.8261536637604744 0  -0.7556005205250198 -1.168666934356776 0  -0.3122516978838742 -1.294957552906404 0  -0.05676569670178869 -1.746764376049461 0  0.05767511359695768 -1.427599893807705 0  -0.4297045225664292 0.6701480029939691 0  -0.5488711402236763 0.3547941732099684 0  -0.73997926234113 0.8550154820945663 0  -1.506721290325993 1.74351544868925 0  0.875 -1.762874586087524 0  1.472075326462355 -0.4054080349204134 0  -0.25 -0.05 0  -0.25 0.05 0  -0.25 -0.1 0  -0.25 0.1 0  -1.466143615521345 0.1029579352495879 0  -1.715353660163548 1.369911604300872 0  1.466181188020228 -0.10487370730003 0  -0.7682785812736894 -0.012086038882336 0  -0.05526835264809966 -0.3532672433471853 0  1.465729310288652 0.5585425529334505 0  -0.1548760540778576 1.514020457580807 0  0.604364413519442 1.422996617960961 0  -1.75 -2 0  -2 -1.75 0  -1.413986854053256 1.001688937633378 0  -0.5018216782012743 1.749922839506173 0  1.25 -2 0  0.75 2 0  -1.25 2 0  -0.25 2 0  2 -1.25 0  -2 -1.25 0  -1.25 -2 0  1.75 -2 0  1.25 2 0  0.25 -2 0  -2 0.25 0  2 -0.25 0  2 0.75 0  2 -1.75 0  2 1.25 0  0.8652765376920856 -1.203019143002233 0  -0.9838357627275672 1.753170554351702 0  -1.240585577119691 1.490668129035045 0  -0.982232708070524 1.236709905404412 0  -1.786825762491236 -0.875 0  0.739373828457782 0 0  0.7638032205076292 0.2533565992403486 0  0.709666625458708 0.9864794035072344 0  -1.149440757540249 -1.191365415959905 0  1.085545776658987 0.811511812351643 0  1.165440178803035 1.172735288644873 0  -0.2962272251699825 -1.733104650480386 0  -1.416747441780366 -1.758969049883952 0  1.078517718453516 -0.1108658247031818 0  1.037466385027053 -0.3403856060454009 0  0.3349608215634475 0.8369725248139381 0  0.2466126646159963 0.3770648908666414 0  0.268976072227778 1.763355927066161 0  -1.072509336230008 0.1261843154559341 0  -1.410459068542118 -0.7370821030154899 0  -1.494896769666115 -1.160148830617909 0  -1.795837328873755 -0.6460952481890528 0  0.2020810256926819 1.425084922554051 0  1.376958780768645 0.7682688908822151 0  1.817293586077871 0.875 0  0.7787869578353218 -0.4479000160558438 0  -1.470907735458679 0.3458741130977815 0  1.515620410940369 -1.21266671137167 0  -0.4399129861776312 0.8952652843513728 0  -1.447953434691042 -1.536634535936381 0  1.775580332712668 0.2362991818665352 0  1.817293586077871 0.6283977088279621 0  0.9794534551538072 1.299950760628357 0  -0.2975822880898809 -1.002705975199446 0  -0.794621034814791 1.104333805421707 0  -0.538699195520714 1.289935680441774 0  1.6316444309907 -1.449795786132327 0  -0.9206739663862504 -1.303553266365546 0  1.025722770199554 -0.7726907388345955 0  0.7627151098396803 -0.6597268298139333 0  -0.625 -1.828193225112275 0  1.553315953182781 1.31782099631043 0  0.9452353882222714 0.5852208659895486 0  0.4049941275169467 1.344199097980102 0  -0.125 0.2685300137707772 0  -0.4540029053848218 -0.5816503984117777 0  -1.439467605043294 1.210803922423807 0  -0.9413822788923184 0.7761980333794491 0  -1.385672742222082 -0.4782860124627957 0  -0.7758064291369466 -0.961448589770057 0  -0.1354537645955561 0.5627112178206028 0  1.774959976219912 1.774959976219912 0  1.469952979681248 1.773393310281498 0  -1.060909878642463 0.3695354187738585 0  -0.8589260867790621 0.4605372573141048 0  1.781343803802223 -0.7525735139944156 0  1.837171366163968 -0.3750000000000001 0  -1.829694021791995 0.3847402061504781 0  0.375 -1.837932119708621 0  -1.212719761918724 1.039769272853888 0  0.3064391919213724 -1.477306759514066 0  0.4147622900591051 -1.1191419714622 0  -0.3871367104974726 -1.486372763015778 0  0.5573499237510148 0.5820689913068572 0  0.625 -1.841636334438256 0  1.429147780144838 1.159911932432328 0  -1.701422360143094 -1.061339168143588 0  -0.5070939503083192 -0.3885874379148457 0  0.1322021154922433 -0.2686225392871915 0  -0.6737578799549989 0.198756119463029 0  -0.3753755265155169 0.25598774941555 0  1.517167094898384 0.9198146105871752 0  -0.7166548033598091 -1.652797629698222 0  0.06763312425106033 -1.229211249318691 0  0.125 -1.844031256887676 0  -0.1174637996258788 -1.333879152701484 0  1.463520842314 1.492883638124108 0  1.821009690895555 1.583077607547358 0  0.6836793815156578 -1.320595517793754 0  -1.814847113364309 1.059074005726146 0  1.510962105965464 -0.9634080689364488 0  -1.625214858632429 -1.447104555207508 0  -1.595939150458238 -1.8319691584
[...]
<PointData  Scalars="f_254"> 
<DataArray  type="Float64"  Name="f_254"  format="ascii">-3.9979235279795480e+08  -5.8750612689913249e+08  -5.8755107770672095e+08  -4.0028353658834422e+08  5.8750945171454644e+08  4.0076091451813924e+08  3.9783532814449066e+08  5.8611584026792586e+08  0.0000000000000000e+00  0.0000000000000000e+00  0.0000000000000000e+00  0.0000000000000000e+00  0.0000000000000000e+00  0.0000000000000000e+00  0.0000000000000000e+00  0.0000000000000000e+00  0.0000000000000000e+00  0.0000000000000000e+00  0.0000000000000000e+00  0.0000000000000000e+00  0.0000000000000000e+00  0.0000000000000000e+00  0.0000000000000000e+00  0.0000000000000000e+00  1.3183942661858280e+08  -1.9904183464434862e+08  1.9904157543290013e+08  -1.3183959017919101e+08  9.6698020590699404e+07  -9.6697781190181077e+07  -5.0967842617782064e+07  5.0969950698923849e+07  -1.8103175398457080e+08  3.4869540167268205e+08  1.0500808054447174e+08  -5.2806447283549488e+07  3.1553905535973314e+07  0.0000000000000000e+00  0.0000000000000000e+00  5.2806568799145222e+07  -5.0641420083109421e+08  -4.2027140182180315e+07  1.7576167637305382e+08  -3.2457270801656902e+08  0.0000000000000000e+00  5.4072160017030671e+07  -5.4071525657459892e+07  -8.6024452513195857e+07  1.1040199699654636e+09  7.6312011536967337e+08  -7.6311949997652328e+08  -1.1040229873703849e+09  4.5592591841438597e+08  -1.1455822935790552e+08  0.0000000000000000e+00  -7.8597504455748662e+07  7.8597761663938776e+07  -2.7600749138217515e+08  2.8212545070890737e+08  0.0000000000000000e+00  0.0000000000000000e+00  0.0000000000000000e+00  0.0000000000000000e+00  0.0000000000000000e+00  0.0000000000000000e+00  0.0000000000000000e+00  0.0000000000000000e+00  0.0000000000000000e+00  0.0000000000000000e+00  0.0000000000000000e+00  0.0000000000000000e+00  -1.9947237478697687e+07  1.9947312707832098e+07  6.6468820270042427e+07  2.5134421292191225e+08  4.7427748523348272e+07  9.7857591684487015e+07  1.3028428415912004e+08  -1.3028505981677717e+08  -6.9624141439503461e+07  3.7007112925507136e+07  -4.7238323948647119e+07  -1.5962747110573208e+08  -1.5833744838894196e+07  1.5834147079053901e+07  1.3080476621557616e+08  1.4052432833733708e+08  1.9711754907081813e+08  5.6365339910112488e+08  -2.3273033529315597e+08  -8.1169010410472110e+07  -1.7436605205399790e+08  3.0072015541462630e+08  2.7818650154241577e+07  1.7690868124669082e+07  -3.4944504880389951e+07  3.2465313951471351e+07  -3.8635321779321499e+07  -2.3547569929144945e+07  -1.5118980344560882e+07  3.3766350417092927e+07  -2.1471757745764885e+07  -4.1621531182424769e+07  -3.5046838138477713e+08  -3.1359599565278512e+08  -5.8886656872017431e+08  -6.1055335935807943e+08  7.1362413777286083e+07  5.7039193468556114e+07  2.4136185387124877e+07  0.0000000000000000e+00  0.0000000000000000e+00  -1.2906528236495676e+07  0.0000000000000000e+00  7.5023727349318087e+07  -8.1551626547785610e+07  -6.8763099320255548e+07  8.5626813209653839e+07  -7.2698074410455137e+07  -1.5685286617060491e+08  2.7753226326517606e+08  1.8285053108345857e+08  6.6839679698402309e+08  0.0000000000000000e+00  5.0710535407040402e+07  -6.5788575332860164e+07  1.1860277397580361e+08  0.0000000000000000e+00  0.0000000000000000e+00  1.0589968233121971e+09  7.3878042058108485e+08  -7.3877454155678284e+08  -1.0590070470253874e+09  -8.9911299200897604e+07  1.1496031731137274e+07  0.0000000000000000e+00  2.3582132818673823e+07  0.0000000000000000e+00  1.2520339830372970e+08  2.5899905604971223e+07  -2.5899856339901708e+07  -8.3746175688990295e+07  1.8915148756349114e+08  9.0734829620574061e+06  0.0000000000000000e+00  5.3522722354835980e+07  -2.0484801490603242e+07  6.9725560722321540e+07  9.6076704137254730e+07  0.0000000000000000e+00  2.4622433665353611e+07  -2.8343351153883196e+07  -1.2690751407554850e+08  4.6954482122038352e+08  4.4191601373426467e+08  -2.0858547536291966e+08  -2.6892795982097995e+08  -3.9027483218510038e+08  -1.6026136502127254e+08  -2.7881223398890179e+08  -1.5652205043461937e+08  0.0000000000000000e+00  0.0000000000000000e+00  0.0000000000000000e+00  0.0000000000000000e+00  5.7347532987785555e+07  -2.4824377511438620e+08  -3.4784941772825724e+08  2.0280167885697716e+08  -4.2851836076790971e+08  -1.2428978734430459e+08  2.5656642618851459e+08  -6.1774959688570172e+07  -6.0954145402946817e+06  0.0000000000000000e+00  -3.6190832187790528e+07  3.6415001132105224e+07  -6.7713841067009896e+07  5.9953069450454928e+07  1.3453254967434654e+08  -1.5153926319685457e+07  8.8947007464529853e+05  -8.8949135712363652e+05  1.6864782967773676e+07  -9.3968418593613088e+07  -1.4671674820917866e+08  -1.6975355315489906e+08  -5.9787236677985661e+07  -1.4220489714329746e+08  3.6792787984778160e+08  4.1723591029135269e+08  2.0842605213900924e+08  1.5588999885056565e+07  -3.6257005850994073e+07  -4.3061160505817443e+07  -7.3877590338687718e+08  7.3877386349111509e+08  -1.0590106841482381e+09  1.0590192063713886e+09  1.2791419636310441e+07  2.0247408839556273e+07  -1.3022552190931421e+07  -1.2882314485685177e+07  -7.4181721407499361e+08  5.3081122121247791e+07  1.1706699486569779e+08  1.1386229686660814e+08  0.0000000000000000e+00  0.0000000000000000e+00  6.2132990904920779e+07  5.1173738102566525e+07  0.0000000000000000e+00  0.0000000000000000e+00  0.0000000000000000e+00  0.0000000000000000e+00  0.0000000000000000e+00  0.0000000000000000e+00  0.0000000000000000e+00  0.0000000000000000e+00  0.0000000000000000e+00  0.0000000000000000e+00  0.0000000000000000e+00  0.0000000000000000e+00  0.0000000000000000e+00  0.0000000000000000e+00  0.0000000000000000e+00  -1.2426847702210701e+08  3.3656933391617708e+07  4.9025769071324915e+07  1.0317262165646167e+08  -2.0952023397894569e+07  5.9650297956558810e+04  2.0512806658653152e+08  1.9058351443059531e+08  -8.5933980182823420e+07  1.2456088236427420e+08  8.5469037701045871e+07  -6.0084900606828779e+07  -1.7584761631428100e+07  -3.8516049144568555e+07  -1.1095776770152521e+08  3.2381839684722328e+08  6.5558318077889776e+08  5.3609750115309693e+07  4.4308921305818677e+07  -6.5909511203182302e+07  -4.6921429912939012e+07  -1.8879724839655090e+07  1.3947886052231571e+08  7.1174784822832495e+07  1.7865427375010975e+07  -2.3501895881798750e+08  3.8351795484047577e+07  -4.2719288797257058e+07  2.7758488749474680e+08  -3.1199749524258319e+07  9.9616311074623894e+06  1.6624211653850129e+07  9.5293355136051416e+07  -2.6495316655198538e+08  1.5179088683216783e+08  1.4997748243848482e+08  -2.3593443688853089e+07  -1.0184518489733776e+08  -1.4020269815716311e+08  -2.3147290603917429e+08  -3.2378685669328641e+07  3.4900678101203784e+07  1.6736428744725788e+08  1.4925898107579875e+08  8.3481098200764406e+08  -3.9650642300905716e+08  5.0552939504517071e+07  1.6184633391155505e+08  -5.9447724887214422e+07  -1.8043670093910101e+08  5.2746066318597561e+08  6.0610569391427729e+06  1.4910157683012906e+07  1.1001652287471196e+08  1.9578372972797066e+08  -2.1261443918745093e+07  -1.0586070386711804e+07  1.1316336324586468e+07  -3.5143229574889310e+07  8.8706856786249816e+07  -1.2133449205167003e+08  -2.1039169236646318e+08  -1.1495100499864872e+08  3.4252808569871658e+08  -2.9831673637057956e+07  5.4079671508497879e+07  -2.8185676089162864e+07  -4.4610483920405132e+08  -8.3268494242229176e+08  2.5428580150786075e+08  6.8626021683505607e+08  5.0814334045390949e+07  -6.1502599140404195e+07  -2.0198113499974415e+08  -3.6291558563897997e+07  -1.6818157791892102e+08  3.2882874681246556e+07  8.7088855928490292e+06  -1.2699668749448358e+08  1.7173034488990121e+07  -5.0864341539276004e+07  -2.4134056777601019e+07  -8.3060758326511392e+06  -5.2460683722728621e+06  -1.0644831996957522e+07  -1.9440414171042688e+07  5.3696557429585591e+07  -4.4588280751631781e+06  3.4059480110915327e+06  2.4665277093344894e+08  3.3524061750841033e+08  2.3414114871175456e+08  -4.3180761065848809e+08  1.6569608086589573e+07  -3.7149380122183993e+07  -5.9907872129672982e+07  -3.8904068557742998e+07  6.9907404766549226e+06  1.5150947057194134e+07  2.5580110639884841e+08  -9.0466958301855549e+07  -6.0190364525782406e+07  5.6137821606458858e+07  -2.4802406414824229e+07  -2.9616063819668878e+07  3.6079527965006061e+07  -1.0398378472578213e+07  7.0914263752942407e+08  -4.5890725752517797e+07  -1.9405002075303819e+07  8.5698114612378180e+08  -9.8203884200247508e+06  -2.1683517312330225e+08  -5.6863174293428028e+08  -6.7811887735091567e+08  9.0076921119851932e+07  4.6914371577003464e+07  4.5855672132569872e+07  -9.7725957028501049e+07  -5.4749400590589568e+07  -1.1706663389800917e+07  -6.3014093758068335e+08  2.7885850496708179e+08  -4.4243858576378554e+08  -7.1505148219767797e+08  -1.1548678561324211e+07  4.3486072165555619e+07  -1.6479632341976023e+08  -4.0431573658400446e+08  -2.6714103816559443e+08  -2.4063873974856740e+08  -4.6606059335177369e+07  2.9998586426968742e+07  -3.0382021827815850e+06  1.1821793386415582e+07  -2.8529820525064600e+08  -4.3338125406114563e+07  -7.1579593088583559e+07  5.8509767101889383e+06  1.9275657683767136e+07  1.4424271327001341e+07  7.3635847258791015e+07  3.0456870485268075e+07  4.2983117452786617e+07  9.8856166150200423e+06  2.7256869710910786e+07  9.4935704707190022e+07  0.0000000000000000e+00  0.0000000000000000e+00  0.0000000000000000e+00  0.0000000000000000e+00  -4.2394121785698738e+06  -1.3177674141568933e+07  2.8278160197707236e+07  1.0351789575888693e+08  4.3992132030671038e+07  2.5277701824706048e+08  0.0000000000000000e+00  -6.4495793460444875e+07  4.8860689947003819e+07  3.7753348631540555e+08  5.2167556946860649e+07  -3.5748620017651856e+07  -9.2753339269933403e+06  0.0000000000000000e+00  0.0000000000000000e+00  -2.1944837441586174e+07  -9.7444221692422360e+07  -1.3956026268529204e+08  -1.0430464736138175e+08  3.8784243015613091e+08  2.6249213410420127e+07  -5.8380029746528029e+07  -1.0733680366281421e+08  3.5879440170238644e+08  2.5413449541033673e+08  -1.7111852301404752e+07  4.5021938195172325e+07  -1.1940932537086992e+07  1.2736946810962863e+08  9.5834455294224113e+07  3.3010624358096518e+07  -1.1595970934493512e+08  0.0000000000000000e+00  2.0382463654215825e+08  7.8730983125938371e+07  1.3511488715921327e+08  0.0000000000000000e+00  -2.4526964455276614e+08  2.6608660911260831e+08  9.5445324638241708e+07  1.9248651788438823e+07  -2.5366384787570816e+08  2.4978778223022874e+06  1.5340664593641829e+08  -9.1922415071586013e+07  -1.1005563756283712e+08  5.6669091698911273e+08  -1.2316205844238088e+08  8.1095982002875119e+07  -2.0286538971929288e+08  -8.5811179286088243e+07  -7.1098149286966786e+07  -3.2792137059110787e+07  -1.0945872665284603e+09  -7.5811183226414526e+08  7.5811275228440881e+08  1.0945842978564749e+09  -8.0366403461772978e+08  -3.4327663485743761e+07  3.3769714264466099e+07  0.0000000000000000e+00  -8.4009452806095779e+06  2.0506429633043349e+07  -1.0030921400104120e+08  -1.8313240131437131e+06  -4.0601270714298867e+07  4.7372719748916626e+06  -1.0999495115572184e+08  3.8292441257621497e+08  -1.8930154110463038e+08  0.0000000000000000e+00  1.6356050674336731e+08  1.9868319102182767e+08  -3.8422577388629638e+07  1.2679978560415762e+07  -3.3502319347060525e+08  -3.0564713429211456e+08  4.2540716875119710e+08  1.0650917655649340e+07  6.9257203227384105e+07  -2.6495302493517127e+07  9.2854839272643834e+07  9.7650750349626672e+06  -1.1542451088877574e+07  -1.6747706087211353e+08  6.9287863349346399e+07  9.7730580802365810e+07  6.9494933467281893e+07  -4.7623836435961127e+08  3.1104338336003397e+07  -3.6097492760763280e+07  -1.1811916359491013e+08  -1.3893369846878949e+08  2.8067113975488745e+07  7.1143714493366882e+07  7.9307440988439664e+07  -1.6793501207571712e+08  -2.3736253824224499e+08  -6.9180530056170046e+07  2.8111341136325303e+07  2.8910723772828788e+07  -2.9456527374605083e+08  1.5447182685143107e+08  9.3459439712258011e+07  3.3508886746905461e+07  -7.5641621841770470e+07  1.0353982573113398e+08  -3.1398574986124557e+07  -5.2334929471709386e+07  2.3174173187523526e+08  1.2571694659428136e+07  3.0011836527563089e+08  0.0000000000000000e+00  -1.4798681447918361e+07  -2.6161846730124328e+07  -9.1324759757444412e+07  7.7527311581461541e+06  7.9798710872024205e+05  0.0000000000000000e+00  0.0000000000000000e+00  -2.4907578643758621e+07  8.0708999043468326e+07  -2.7230369173040517e+07  -6.7022569365057498e+07  -1.1129617441890579e+07  -1.6074634462469119e+08  -1.5779767642196119e+08  -1.6420178757149360e+08  0.0000000000000000e+00  2.4877583500294033e+07  1.8789729984727412e+08  1.2284005309441929e+08  3.0254190403011046e+07  -3.0450373818874527e+07  2.0892614992203683e+08  0.0000000000000000e+00  6.6005546055964315e+08  2.0301098886500955e+07  4.4352284290735656e+08  -2.1766099940117282e+08  2.5826911158609673e+07  -3.2329637647292435e+08  -2.5913108305079073e+08  -2.1714887339650160e+08  -1.5051947765811460e+07  -3.8551265065945484e+07  -1.7091516509927526e+08  -5.0347257359199040e+06  7.6773025469711516e+06  9.5222962867607083e+06  1.2466512036522272e+08  1.6743128419709301e+08  1.2375951122340332e+08  1.0814266371594511e+08  2.0805777999450658e+07  -1.7992257981396842e+08  -8.9358072648705199e+07  4.2946163327890897e+08  2.7757452903925158e+07  7.5638220234118059e+07  9.8915217625870407e+06  6.7713276091204554e+07  -9.9126256709043741e+07  -2.6042789389551586e+08  -1.0854899966093656e+08  5.7670545368278414e+07  4.2388525510452770e+07  1.5036818706258288e+08  2.2372378988374460e+08  -8.1916835367592543e+07  1.1127666495282705e+08  -5.7603320565025464e+07  1.6631316794977012e+08  -6.3602158991615787e+07  -3.2686199942750973e+08  -5.3140436940255582e+08  -1.6546154827586076e+08  2.0764034987059212e+08  0.0000000000000000e+00  0.0000000000000000e+00  -1.0269152160030043e+08  0.0000000000000000e+00  1.4014931526301906e+07  -4.6141835647086537e+08  3.1115698946712565e+07  -1.4914457907572293e+08  -1.0621236234379750e+07  5.4159526362909877e+08  4.6155250679594755e+08  -8.9995345255882800e+07  -4.9445804508571386e+08  2.8774076192938033e+07  7.7820929861477524e+07  1.2046384651383592e+08  -2.5602821587293902e+08  -2.8408133909686208e+08  -3.2801652151699764e+08  -5.0672736101505488e+07  8.2881544751075044e+07  0.0000000000000000e+00  2.1096553605261140e+07  3.0149700493262406e+07  -1.1573763568246137e+08  -1.2134300912802819e+07  0.0000000000000000e+00  2.6132413851652905e+07  8.0385149127441365e+06  -5.1641760635535076e+07  1.2586977560831106e+08  -4.5178310398627073e+07  2.3861778872212732e+08  -2.4329994947220545e+07  -8.6172755298681647e+07  -6.8024957976564273e+07  -1.2006173533750281e+08  -6.7651879470896795e+06  8.3500857871009636e+08  -6.7979199214718318e+08  6.7978744594636571e+08  -9.5895267601518524e+08  9.5898162010380983e+08  -7.5811084079917073e+08  7.5811279592671502e+08  -1.0945861401810243e+09  1.0945879357058353e+09  6.7977062634793949e+08  -6.7977635385827136e+08  9.5914894090228808e+08  -9.5899894303575766e+08  1.8803989286443287e+08  -3.2557664903422469e+08  -4.1941963843237847e+08  -2.9937042344126475e+08  -5.1493951579863209e+08  -5.0793181714785236e+08  2.0850598202416489e+08  1.9147903588243118e+08  0.0000000000000000e+00  -2.3983941790139694e+07  1.1207157580197662e+08  -1.1389474562131314e+07  8.8892636128508244e+06  2.8201316481333542e+08  2.9143048441173428e+08  1.5400908606209904e+08  1.2666596800251616e+07  1.5496733117200747e+08  0.0000000000000000e+00  1.7920570635594723e+08  2.4877882916787210e+08  0.0000000000000000e+00  6.8376996237435676e+06  -4.0017409332156561e+07  1.1718926251638335e+08  -4.7800443975378405e+06  -2.6610555400815081e+07  0.0000000000000000e+00  7.1928489252508730e+07  -3.5022443298921347e+07  -9.2480551631629318e+07  0.0000000000000000e+00  -9.1633925325354850e+08  2.6338630523136118e+06  5.7674556004431255e+07  -6.7756100240915820e+07  8.8712477469806597e+06  1.1731896848440027e+07  -1.4710503121323705e+08  -3.8405746626752770e+08  -7.1886183577829629e+07  -5.6513508620416626e+07  -7.4367910260926142e+07  -3.6626429897548132e+07  -1.6809912707280513e+07  -5.0729725194102354e+07  -7.6699419464817002e+07  -3.0925994722179681e+07  -1.6759400966273996e+08  -1.1294605670381516e+08  -1.4557488218093520e+08  -6.5545655493285917e+07  -7.9092749738227278e+07  -1.3408485655051632e+08  4.4932040252670121e+08  3.4930701594971341e+08  4.9402696790081477e+08  5.1637573072447640e+08  5.8781786122240666e+06  3.2857519525874168e+08  -6.1186566054096735e+08  -2.8970172364431456e+07  -4.2419083238356393e+06  1.0229908468215618e+08  5.2726435636497870e+07  2.1306735625624031e+08  7.4551170502983749e+07  -6.2351840193227798e+07  2.3307489703524724e+08  2.0061510750751950e+07  5.7026892777023755e+07  4.5473231898425713e+07  3.6897343095064282e+07  7.2890757567840859e+07  -4.1933440840742208e+07  1.0948907855729821e+08  -1.5993510211095277e+07  -7.9870501225002557e+06  2.1950504267943848e+07  3.2043190281310070e+07  8.9244796795025282e+06  9.5730196408419371e+07  -6.4198668016672820e+07  -2.6796137867480673e+07  1.6961235939345941e+07  4.6271153580434561e+07  1.4655225354135019e+08  5.4912601318085305e+07  0.0000000000000000e+00  -1.0706590914236496e+08  7.1853611063802016e+08  4.9370537243104361e+07  -1.6278328843841009e+07  1.5271527823933862e+04  2.9145020667259151e+08  2.4987063868404627e+07  7.9522513699538335e+07  2.8762935476114832e+07  -2.6248927442184083e+07  1.2098658421256524e+07  0.0000000000000000e+00  0.0000000000000000e+00  0.0000000000000000e+00  0.0000000000000000e+00  0.0000000000000000e+00  0.0000000000000000e+00  0.0000000000000000e+00  0.0000000000000000e+00  0.0000000000000000e+00  0.0000000000000000e+00  0.0000000000000000e+00  0.0000000000000000e+00  0.0000000000000000e+00  0.0000000000000000e+00  0.0000000000000000e+00  0.0000000000000000e+00  0.0000000000000000e+00  0.0000000000000000e+00  0.0000000000000000e+00  0.0000000000000000e+00  0.0000000000000000e+00  0.0000000000000000e+00  0.0000000000000000e+00  0.0000000000000000e+00  0.0000000000000000e+00  0.0000000000000000e+00  0.0000000000000000e+00  0.0000000000000000e+00  0.0000000000000000e+00  0.0000000000000000e+00  0.0000000000000000e+00  0.0000000000000000e+00  0.0000000000000000e+00  0.0000000000000000e+00  0.0000000000000000e+00  0.0000000000000000e+00  0.0000000000000000e+00  -4.8854447606408909e+07  -5.2081622738682598e+07  1.2469618001848860e+08  1.1720258901388502e+08  8.7177421228395075e+07  -8.2857894485904202e+07  9.3360814224697128e+07  2.1362542623937365e+08  -6.0986835915081936e+05  -1.0072942183681491e+08  -1.3239345268962343e+08  -1.4921537171988642e+08  -2.4583609641243443e+08  1.0178897447892943e+07  1.7018870603047833e+07  4.9440211980111428e+07  4.4012658757593192e+07  1.5818065997752931e+07  -3.4321825756821156e+07  -1.0304891625243919e+07  3.9834347428225689e+07  5.7374416914170660e+07  6.0204235782094829e+07  2.2667252218309037e+07  2.3269607399092942e+08  2.0187024051578164e+08  2.4097814350531646e+06  -1.9649843580893537e+08  7.8454625648143636e+06  9.2548142463439152e+07  -7.6542481900848377e+08  1.3175791381208465e+07  6.1769516824273929e+07  4.2530967461376041e+06  -6.6907835597023571e+08  -8.1932854725656891e+06  -6.8779040072865322e+07  9.0919608356727302e+07  -9.3005137448572256e+06  9.5767771179746196e+07  7.1776057887089834e+07  1.4379180333226196e+07  -1.0461969082326742e+08  4.2709334674683265e+07  -9.7639755836056918e+06  6.7632859133815691e+07  1.1909339484415728e+08  -1.2416082614662695e+08  -7.6100546493873715e+07  3.7516898386956163e+07  9.8564316145466059e+07  -7.2208492559300393e+07  1.1249331419831350e+08  2.3767100021016896e+07  -5.6968572407358430e+07  -1.7624057743575968e+07  -1.7910482469444054e+08  3.2427479517252016e+08  -5.3634914871146992e+07  3.8327341915210657e+07  3.2312922621581209e+08  3.7246710091501218e+08  6.2711521406773813e+06  3.4857168323835850e+07  4.1779666476158820e+07  2.6594455420703724e+07  7.0915830203311056e+07  7.7023298536040902e+07  -3.3590831475748338e+07  -4.2401533905426942e+07  -5.0799936443274185e+07  -1.7285100156375643e+07  5.5402630628487177e+0