<?xml version="1.0"?>
<VTKFile type="UnstructuredGrid"  version="0.1"  >
<UnstructuredGrid>
<Piece  NumberOfPoints="32765" NumberOfCells="64724">
<Points>
<DataArray  type="Float64"  NumberOfComponents="3"  format="ascii">-1 1.224646799147353e-16 0  -0.9969173337331281 -0.07845909572784437 0  -0.9876883405951378 -0.1564344650402307 0  -0.9723699203976767 -0.2334453638559053 0  -0.9510565162951538 -0.3090169943749469 0  -0.9238795325112868 -0.3826834323650897 0  -0.8910065241883679 -0.4539904997395467 0  -0.8526401643540921 -0.5224985647159491 0  -0.8090169943749476 -0.587785252292473 0  -0.7604059656000314 -0.6494480483301832 0  -0.7071067811865477 -0.7071067811865475 0  -0.6494480483301841 -0.7604059656000306 0  -0.5877852522924732 -0.8090169943749473 0  -0.5224985647159486 -0.8526401643540924 0  -0.4539904997395469 -0.8910065241883678 0  -0.3826834323650895 -0.9238795325112868 0  -0.3090169943749476 -0.9510565162951535 0  -0.233445363855906 -0.9723699203976764 0  -0.156434465040231 -0.9876883405951377 0  -0.07845909572784557 -0.996917333733128 0  -1.83697019872103e-16 -1 0  0.07845909572784521 -0.996917333733128 0  0.1564344650402307 -0.9876883405951378 0  0.2334453638559057 -0.9723699203976766 0  0.3090169943749472 -0.9510565162951536 0  0.3826834323650892 -0.923879532511287 0  0.4539904997395466 -0.8910065241883679 0  0.5224985647159484 -0.8526401643540925 0  0.5877852522924729 -0.8090169943749476 0  0.6494480483301839 -0.7604059656000308 0  0.7071067811865474 -0.7071067811865477 0  0.760405965600031 -0.6494480483301834 0  0.8090169943749473 -0.5877852522924734 0  0.8526401643540918 -0.5224985647159495 0  0.8910065241883678 -0.453990499739547 0  0.9238795325112865 -0.3826834323650904 0  0.9510565162951535 -0.3090169943749477 0  0.9723699203976767 -0.2334453638559052 0  0.9876883405951377 -0.1564344650402311 0  0.996917333733128 -0.07845909572784475 0  1 0 0  0.996917333733128 0.07845909572784494 0  0.9876883405951378 0.1564344650402309 0  0.9723699203976766 0.2334453638559054 0  0.9510565162951535 0.3090169943749474 0  0.9238795325112867 0.3826834323650898 0  0.8910065241883679 0.4539904997395467 0  0.8526401643540922 0.5224985647159488 0  0.8090169943749475 0.5877852522924731 0  0.7604059656000309 0.6494480483301837 0  0.7071067811865476 0.7071067811865475 0  0.6494480483301838 0.7604059656000308 0  0.5877852522924731 0.8090169943749475 0  0.5224985647159489 0.8526401643540922 0  0.4539904997395468 0.8910065241883678 0  0.3826834323650898 0.9238795325112867 0  0.3090169943749475 0.9510565162951535 0  0.2334453638559055 0.9723699203976766 0  0.1564344650402309 0.9876883405951378 0  0.078459095727845 0.996917333733128 0  6.123233995736766e-17 1 0  -0.07845909572784487 0.996917333733128 0  -0.1564344650402306 0.9876883405951378 0  -0.2334453638559053 0.9723699203976767 0  -0.3090169943749473 0.9510565162951536 0  -0.3826834323650897 0.9238795325112867 0  -0.4539904997395467 0.8910065241883679 0  -0.5224985647159488 0.8526401643540923 0  -0.587785252292473 0.8090169943749475 0  -0.6494480483301835 0.760405965600031 0  -0.7071067811865475 0.7071067811865476 0  -0.7604059656000309 0.6494480483301838 0  -0.8090169943749473 0.5877852522924732 0  -0.8526401643540922 0.5224985647159489 0  -0.8910065241883678 0.4539904997395469 0  -0.9238795325112867 0.3826834323650899 0  -0.9510565162951535 0.3090169943749475 0  -0.9723699203976766 0.2334453638559055 0  -0.9876883405951377 0.156434465040231 0  -0.996917333733128 0.07845909572784507 0  5 0 0  4.999389284703265 0.07814588917003934 0  4.997557288002329 0.1562726883841214 0  4.994504457428557 0.2343613123497003 0  4.99023153874608 0.3123926850999132 0  4.984739575769618 0.3903477446535747 0  4.97802991010949 0.4682074476717538 0  4.97010418084388 0.5459527741097976 0  4.960964324118427 0.6235647318636638 0  4.950612572673255 0.7010243614094286 0  4.939051455297547 0.7783127404348349 0  4.926283796211795 0.85541098846175 0  4.91231271437788 0.9323002714584059 0  4.89714162273716 1.00896180644029 0  4.880774227376726 1.085376866058568 0  4.863214526624065 1.161526783174916 0  4.844466810070319 1.237392955421644 0  4.824535657522398 1.312956849745992 0  4.803425937884201 1.388200006937503 0  4.781142807967204 1.463104046137348 0  4.757691711230727 1.537650669328517 0  4.733078376452171 1.611821665805768 0  4.707308816327557 1.685598916624254 0  4.680389326002708 1.758964399025722 0  4.652326481535433 1.831900190841231 0  4.623127138289087 1.904388474869284 0  4.592798429257899 1.976411543228327 0  4.561347763324484 2.047951801682531 0  4.528782823449953 2.118991773939832 0  4.495111564797073 2.189514105921131 0  4.460342212786933 2.259501569999669 0  4.424483261089583 2.328937069209489 0  4.387543469549156 2.397803641421989 0  4.349531862043952 2.466084463489537 0  4.310457724282032 2.533762855355126 0  4.270330601532854 2.60082228412709 0  4.229160296295487 2.667246368117851 0  4.186956865904003 2.733018880845745 0  4.143730620070609 2.798123754998919 0  4.099492118367123 2.86254508636036 0  4.054252167645426 2.926267137693066 0  4.008021819397487 2.989274342584443 0  3.960812367055647 3.051551309248961 0  3.912635343233783 3.113082824288145 0  3.863502516910057 3.17385385640701 0  3.81342589055191 3.233849560085993 0  3.762417697184033 3.293055279207502 0  3.710490397400005 3.351456550636209 0  3.657656676318345 3.409039107752188 0  3.603929440483713 3.465788883936059 0  3.549321814714017 3.521692016005261 0  3.493847138894208 3.576734847600638 0  3.437518964717529 3.630903932522496 0  3.380351052375023 3.684186038015327 0  3.322357367194109 3.736568148000385 0  3.263552076227048 3.788037466255334 0  3.20394954479013 3.838581419540182 0  3.143564332954425 3.88818766066876 0  3.082411191988956 3.93684407152496 0  3.020505060757178 3.984538766023023 0  2.957861062067612 4.03126009301115 0  2.894494498979557 4.076996639117707 0  2.830420851064766 4.121737231539367 0  2.765655770625997 4.165470940770458 0  2.700215078873379 4.208187083272895 0  2.634114762059504 4.24987522408602 0  2.56737096757421 4.290525179375722 0  2.5 4.330127018922193 0  2.432018317129056 4.36867106854576 0  2.363442525942826 4.406147912470143 0  2.294289378555178 4.442548395622596 0  2.224575768120082 4.477863625870371 0  2.154318724704853 4.512084976192941 0  2.083535411129934 4.545204086789461 0  2.012243118776269 4.577212867120947 0  1.940459263361249 4.608103497886687 0  1.8682013806843 4.637868432934388 0  1.795487122343122 4.666500401103595 0  1.722334251421665 4.693992408001932 0  1.648760638150833 4.720337737713739 0  1.574784255543052 4.745529954440675 0  1.500423175001704 4.769562904073894 0  1.425695561906537 4.792430715697412 0  1.35061967117611 4.814127803022281 0  1.275213842808383 4.834648865751253 0  1.199496497400489 4.853988890873563 0  1.123486131648859 4.872143153889537 0  1.047201313830723 4.889107219964726 0  0.9706606792681387 4.904876945013271 0  0.8938829257756462 4.919448476710247 0  0.8168868090926511 4.932818255432733 0  0.7396911383016496 4.944983015129376 0  0.662314771233441 4.955939784118245 0  0.584776609860413 4.96568588581277 0  0.507095595679058 4.974218939375598 0  0.4292907050828301 4.981536860300191 0  0.351380944726465 4.98763786092005 0  0.2733853468829307 4.992520450845415 0  0.1953229647940974 4.996183437327341 0  0.1172128680163017 4.99862592554908 0  0.03907413776191954 4.999847318844663 0  -0.03907413776191893 4.999847318844663 0  -0.1172128680163022 4.99862592554908 0  -0.1953229647940957 4.996183437327341 0  -0.2733853468829301 4.992520450845415 0  -0.3513809447264655 4.98763786092005 0  -0.4292907050828295 4.981536860300191 0  -0.5070955956790586 4.974218939375598 0  -0.5847766098604114 4.965685885812771 0  -0.6623147712334393 4.955939784118245 0  -0.73969113830165 4.944983015129376 0  -0.8168868090926505 4.932818255432733 0  -0.8938829257756465 4.919448476710247 0  -0.970660679268137 4.904876945013271 0  -1.047201313830721 4.889107219964727 0  -1.12348613164886 4.872143153889537 0  -1.199496497400489 4.853988890873563 0  -1.275213842808382 4.834648865751253 0  -1.350619671176111 4.814127803022281 0  -1.425695561906535 4.792430715697412 0  -1.500423175001703 4.769562904073895 0  -1.574784255543052 4.745529954440675 0  -1.648760638150832 4.720337737713739 0  -1.722334251421664 4.693992408001932 0  -1.795487122343122 4.666500401103596 0  -1.868201380684298 4.637868432934389 0  -1.940459263361249 4.608103497886687 0  -2.012243118776268 4.577212867120947 0  -2.083535411129933 4.545204086789461 0  -2.154318724704852 4.512084976192942 0  -2.224575768120081 4.477863625870372 0  -2.294289378555179 4.442548395622595 0  -2.363442525942827 4.406147912470142 0  -2.432018317129054 4.368671068545761 0  -2.499999999999999 4.330127018922194 0  -2.567370967574209 4.290525179375722 0  -2.634114762059503 4.249875224086021 0  -2.700215078873378 4.208187083272895 0  -2.765655770625997 4.165470940770458 0  -2.830420851064765 4.121737231539368 0  -2.894494498979557 4.076996639117707 0  -2.95786106206761 4.03126009301115 0  -3.020505060757178 3.984538766023023 0  -3.082411191988957 3.936844071524959 0  -3.143564332954423 3.888187660668761 0  -3.20394954479013 3.838581419540183 0  -3.263552076227048 3.788037466255334 0  -3.322357367194108 3.736568148000386 0  -3.380351052375023 3.684186038015327 0  -3.437518964717529 3.630903932522496 0  -3.493847138894208 3.576734847600638 0  -3.549321814714017 3.521692016005261 0  -3.603929440483711 3.465788883936061 0  -3.657656676318346 3.409039107752188 0  -3.710490397400005 3.351456550636208 0  -3.762417697184032 3.293055279207503 0  -3.813425890551909 3.233849560085994 0  -3.863502516910056 3.173853856407012 0  -3.912635343233783 3.113082824288145 0  -3.960812367055647 3.051551309248961 0  -4.008021819397486 2.989274342584444 0  -4.054252167645426 2.926267137693066 0  -4.099492118367122 2.862545086360361 0  -4.143730620070607 2.798123754998921 0  -4.186956865904002 2.733018880845747 0  -4.229160296295486 2.667246368117853 0  -4.2703306
[...]
<PointData  Scalars="f_143"> 
<DataArray  type="Float64"  Name="f_143"  format="ascii">1.4567958946946496e-05  1.4567981710322953e-05  1.4568008214510645e-05  1.4567337339984076e-05  1.4567390539587385e-05  1.4567965105741887e-05  1.4568386457125063e-05  1.4567201766851009e-05  1.4567016047333402e-05  1.4567770250552389e-05  1.4567513322111825e-05  1.4567567340033923e-05  1.4567513770158009e-05  1.4567692263250274e-05  1.4567476015393401e-05  1.4567795339715126e-05  1.4567100047929517e-05  1.4568327674937451e-05  1.4567332723986390e-05  1.4567313267703100e-05  1.4567384159388362e-05  1.4566906329904236e-05  1.4568598176504952e-05  1.4567248504115206e-05  1.4567653223836650e-05  1.4567969082709483e-05  1.4567671115730801e-05  1.4567152883987221e-05  1.4566965743035311e-05  1.4568009918078723e-05  1.4567291854085485e-05  1.4567260502127961e-05  1.4567193920486869e-05  1.4567458263281244e-05  1.4567196161772779e-05  1.4567150553021962e-05  1.4567188430592642e-05  1.4567347128956881e-05  1.4568421642321811e-05  1.4567648545715165e-05  1.4567685660111412e-05  1.4567676165742176e-05  1.4567642039561071e-05  1.4566931214784224e-05  1.4568151511762226e-05  1.4567778628857151e-05  1.4567774249533755e-05  1.4568255375555282e-05  1.4567065227934917e-05  1.4567642324806419e-05  1.4568234926726024e-05  1.4567642180549747e-05  1.4567688455518127e-05  1.4567903068068213e-05  1.4567923701507719e-05  1.4567487327364756e-05  1.4567535943673316e-05  1.4567904795764309e-05  1.4567848038275667e-05  1.4567894049665972e-05  1.4567370070865292e-05  1.4567906981375642e-05  1.4567624106349316e-05  1.4567637391533157e-05  1.4567762194761249e-05  1.4568217098792746e-05  1.4567559271657839e-05  1.4567869227247446e-05  1.4568113406114218e-05  1.4567225103617405e-05  1.4567088905471355e-05  1.4567173260659278e-05  1.4567386231906620e-05  1.4567847914892158e-05  1.4567929686082475e-05  1.4568232840899819e-05  1.4567090229036033e-05  1.4567252390298461e-05  1.4567063943248896e-05  1.4568168704352669e-05  0.0000000000000000e+00  0.0000000000000000e+00  0.0000000000000000e+00  0.0000000000000000e+00  0.0000000000000000e+00  0.0000000000000000e+00  0.0000000000000000e+00  0.0000000000000000e+00  0.0000000000000000e+00  0.0000000000000000e+00  0.0000000000000000e+00  0.0000000000000000e+00  0.0000000000000000e+00  0.0000000000000000e+00  0.0000000000000000e+00  0.0000000000000000e+00  0.0000000000000000e+00  0.0000000000000000e+00  0.0000000000000000e+00  0.0000000000000000e+00  0.0000000000000000e+00  0.0000000000000000e+00  0.0000000000000000e+00  0.0000000000000000e+00  0.0000000000000000e+00  0.0000000000000000e+00  0.0000000000000000e+00  0.0000000000000000e+00  0.0000000000000000e+00  0.0000000000000000e+00  0.0000000000000000e+00  0.0000000000000000e+00  0.0000000000000000e+00  0.0000000000000000e+00  0.0000000000000000e+00  0.0000000000000000e+00  0.0000000000000000e+00  0.0000000000000000e+00  0.0000000000000000e+00  0.0000000000000000e+00  0.0000000000000000e+00  0.0000000000000000e+00  0.0000000000000000e+00  0.0000000000000000e+00  0.0000000000000000e+00  0.0000000000000000e+00  0.0000000000000000e+00  0.0000000000000000e+00  0.0000000000000000e+00  0.0000000000000000e+00  0.0000000000000000e+00  0.0000000000000000e+00  0.0000000000000000e+00  0.0000000000000000e+00  0.0000000000000000e+00  0.0000000000000000e+00  0.0000000000000000e+00  0.0000000000000000e+00  0.0000000000000000e+00  0.0000000000000000e+00  0.0000000000000000e+00  0.0000000000000000e+00  0.0000000000000000e+00  0.0000000000000000e+00  0.0000000000000000e+00  0.0000000000000000e+00  0.0000000000000000e+00  0.0000000000000000e+00  0.0000000000000000e+00  0.0000000000000000e+00  0.0000000000000000e+00  0.0000000000000000e+00  0.0000000000000000e+00  0.0000000000000000e+00  0.0000000000000000e+00  0.0000000000000000e+00  0.0000000000000000e+00  0.0000000000000000e+00  0.0000000000000000e+00  0.0000000000000000e+00  0.0000000000000000e+00  0.0000000000000000e+00  0.0000000000000000e+00  0.0000000000000000e+00  0.0000000000000000e+00  0.0000000000000000e+00  0.0000000000000000e+00  0.0000000000000000e+00  0.0000000000000000e+00  0.0000000000000000e+00  0.0000000000000000e+00  0.0000000000000000e+00  0.0000000000000000e+00  0.0000000000000000e+00  0.0000000000000000e+00  0.0000000000000000e+00  0.0000000000000000e+00  0.0000000000000000e+00  0.0000000000000000e+00  0.0000000000000000e+00  0.0000000000000000e+00  0.0000000000000000e+00  0.0000000000000000e+00  0.0000000000000000e+00  0.0000000000000000e+00  0.0000000000000000e+00  0.0000000000000000e+00  0.0000000000000000e+00  0.0000000000000000e+00  0.0000000000000000e+00  0.0000000000000000e+00  0.0000000000000000e+00  0.0000000000000000e+00  0.0000000000000000e+00  0.0000000000000000e+00  0.0000000000000000e+00  0.0000000000000000e+00  0.0000000000000000e+00  0.0000000000000000e+00  0.0000000000000000e+00  0.0000000000000000e+00  0.0000000000000000e+00  0.0000000000000000e+00  0.0000000000000000e+00  0.0000000000000000e+00  0.0000000000000000e+00  0.0000000000000000e+00  0.0000000000000000e+00  0.0000000000000000e+00  0.0000000000000000e+00  0.0000000000000000e+00  0.0000000000000000e+00  0.0000000000000000e+00  0.0000000000000000e+00  0.0000000000000000e+00  0.0000000000000000e+00  0.0000000000000000e+00  0.0000000000000000e+00  0.0000000000000000e+00  0.0000000000000000e+00  0.0000000000000000e+00  0.0000000000000000e+00  0.0000000000000000e+00  0.0000000000000000e+00  0.0000000000000000e+00  0.0000000000000000e+00  0.0000000000000000e+00  0.0000000000000000e+00  0.0000000000000000e+00  0.0000000000000000e+00  0.0000000000000000e+00  0.0000000000000000e+00  0.0000000000000000e+00  0.0000000000000000e+00  0.0000000000000000e+00  0.0000000000000000e+00  0.0000000000000000e+00  0.0000000000000000e+00  0.0000000000000000e+00  0.0000000000000000e+00  0.0000000000000000e+00  0.0000000000000000e+00  0.0000000000000000e+00  0.0000000000000000e+00  0.0000000000000000e+00  0.0000000000000000e+00  0.0000000000000000e+00  0.0000000000000000e+00  0.0000000000000000e+00  0.0000000000000000e+00  0.0000000000000000e+00  0.0000000000000000e+00  0.0000000000000000e+00  0.0000000000000000e+00  0.0000000000000000e+00  0.0000000000000000e+00  0.0000000000000000e+00  0.0000000000000000e+00  0.0000000000000000e+00  0.0000000000000000e+00  0.0000000000000000e+00  0.0000000000000000e+00  0.0000000000000000e+00  0.0000000000000000e+00  0.0000000000000000e+00  0.0000000000000000e+00  0.0000000000000000e+00  0.0000000000000000e+00  0.0000000000000000e+00  0.0000000000000000e+00  0.0000000000000000e+00  0.0000000000000000e+00  0.0000000000000000e+00  0.0000000000000000e+00  0.0000000000000000e+00  0.0000000000000000e+00  0.0000000000000000e+00  0.0000000000000000e+00  0.0000000000000000e+00  0.0000000000000000e+00  0.0000000000000000e+00  0.0000000000000000e+00  0.0000000000000000e+00  0.0000000000000000e+00  0.0000000000000000e+00  0.0000000000000000e+00  0.0000000000000000e+00  0.0000000000000000e+00  0.0000000000000000e+00  0.0000000000000000e+00  0.0000000000000000e+00  0.0000000000000000e+00  0.0000000000000000e+00  0.0000000000000000e+00  0.0000000000000000e+00  0.0000000000000000e+00  0.0000000000000000e+00  0.0000000000000000e+00  0.0000000000000000e+00  0.0000000000000000e+00  0.0000000000000000e+00  0.0000000000000000e+00  0.0000000000000000e+00  0.0000000000000000e+00  0.0000000000000000e+00  0.0000000000000000e+00  0.0000000000000000e+00  0.0000000000000000e+00  0.0000000000000000e+00  0.0000000000000000e+00  0.0000000000000000e+00  0.0000000000000000e+00  0.0000000000000000e+00  0.0000000000000000e+00  0.0000000000000000e+00  0.0000000000000000e+00  0.0000000000000000e+00  0.0000000000000000e+00  0.0000000000000000e+00  0.0000000000000000e+00  0.0000000000000000e+00  0.0000000000000000e+00  0.0000000000000000e+00  0.0000000000000000e+00  0.0000000000000000e+00  0.0000000000000000e+00  0.0000000000000000e+00  0.0000000000000000e+00  0.0000000000000000e+00  0.0000000000000000e+00  0.0000000000000000e+00  0.0000000000000000e+00  0.0000000000000000e+00  0.0000000000000000e+00  0.0000000000000000e+00  0.0000000000000000e+00  0.0000000000000000e+00  0.0000000000000000e+00  0.0000000000000000e+00  0.0000000000000000e+00  0.0000000000000000e+00  0.0000000000000000e+00  0.0000000000000000e+00  0.0000000000000000e+00  0.0000000000000000e+00  0.0000000000000000e+00  0.0000000000000000e+00  0.0000000000000000e+00  0.0000000000000000e+00  0.0000000000000000e+00  0.0000000000000000e+00  0.0000000000000000e+00  0.0000000000000000e+00  0.0000000000000000e+00  0.0000000000000000e+00  0.0000000000000000e+00  0.0000000000000000e+00  0.0000000000000000e+00  0.0000000000000000e+00  0.0000000000000000e+00  0.0000000000000000e+00  0.0000000000000000e+00  0.0000000000000000e+00  0.0000000000000000e+00  0.0000000000000000e+00  0.0000000000000000e+00  0.0000000000000000e+00  0.0000000000000000e+00  0.0000000000000000e+00  0.0000000000000000e+00  0.0000000000000000e+00  0.0000000000000000e+00  0.0000000000000000e+00  0.0000000000000000e+00  0.0000000000000000e+00  0.0000000000000000e+00  0.0000000000000000e+00  0.0000000000000000e+00  0.0000000000000000e+00  0.0000000000000000e+00  0.0000000000000000e+00  0.0000000000000000e+00  0.0000000000000000e+00  0.0000000000000000e+00  0.0000000000000000e+00  0.0000000000000000e+00  0.0000000000000000e+00  0.0000000000000000e+00  0.0000000000000000e+00  0.0000000000000000e+00  0.0000000000000000e+00  0.0000000000000000e+00  0.0000000000000000e+00  0.0000000000000000e+00  0.0000000000000000e+00  0.0000000000000000e+00  0.0000000000000000e+00  0.0000000000000000e+00  0.0000000000000000e+00  0.0000000000000000e+00  0.0000000000000000e+00  0.0000000000000000e+00  0.0000000000000000e+00  0.0000000000000000e+00  0.0000000000000000e+00  0.0000000000000000e+00  0.0000000000000000e+00  0.0000000000000000e+00  0.0000000000000000e+00  0.0000000000000000e+00  0.0000000000000000e+00  0.0000000000000000e+00  0.0000000000000000e+00  0.0000000000000000e+00  0.0000000000000000e+00  0.0000000000000000e+00  0.0000000000000000e+00  0.0000000000000000e+00  0.0000000000000000e+00  0.0000000000000000e+00  0.0000000000000000e+00  0.0000000000000000e+00  0.0000000000000000e+00  0.0000000000000000e+00  0.0000000000000000e+00  0.0000000000000000e+00  0.0000000000000000e+00  0.0000000000000000e+00  0.0000000000000000e+00  0.0000000000000000e+00  0.0000000000000000e+00  0.0000000000000000e+00  0.0000000000000000e+00  0.0000000000000000e+00  0.0000000000000000e+00  0.0000000000000000e+00  0.0000000000000000e+00  0.0000000000000000e+00  0.0000000000000000e+00  0.0000000000000000e+00  0.0000000000000000e+00  0.0000000000000000e+00  0.0000000000000000e+00  0.0000000000000000e+00  0.0000000000000000e+00  0.0000000000000000e+00  0.0000000000000000e+00  0.0000000000000000e+00  0.0000000000000000e+00  0.0000000000000000e+00  0.0000000000000000e+00  0.0000000000000000e+00  0.0000000000000000e+00  0.0000000000000000e+00  0.0000000000000000e+00  0.0000000000000000e+00  0.0000000000000000e+00  0.0000000000000000e+00  0.0000000000000000e+00  0.0000000000000000e+00  0.0000000000000000e+00  0.0000000000000000e+00  0.0000000000000000e+00  0.0000000000000000e+00  0.0000000000000000e+00  0.0000000000000000e+00  0.0000000000000000e+00  0.0000000000000000e+00  0.0000000000000000e+00  0.0000000000000000e+00  0.0000000000000000e+00  0.0000000000000000e+00  0.0000000000000000e+00  0.0000000000000000e+00  0.0000000000000000e+00  0.0000000000000000e+00  0.0000000000000000e+00  0.0000000000000000e+00  0.0000000000000000e+00  0.0000000000000000e+00  0.0000000000000000e+00  0.0000000000000000e+00  7.2587220916410763e-06  7.2588966485305473e-06  7.2583141065975197e-06  7.2584886130259973e-06  7.2584329169082372e-06  7.2590685943971397e-06  7.2580893061548749e-06  7.2591123948055617e-06  6.3651345651188889e-06  9.2721391519800730e-06  4.9650658686498534e-06  4.9910884532213381e-06  4.9697996273873379e-06  4.9487705173830745e-06  4.9960148379598692e-06  4.9474019951632266e-06  4.9947793968267544e-06  9.9211213196768561e-06  4.5154291119093342e-06  4.4667277208878207e-06  4.4384049405863809e-06  9.9120310651044117e-06  1.0062631893117163e-05  9.9048640725029732e-06  1.0062519021701871e-05  9.9119121246171781e-06  9.9046644223063923e-06  1.0276771252262394e-05  3.8972575711855700e-06  3.8956291587246728e-06  3.8955930657206143e-06  3.8966426303985205e-06  3.9103625307898736e-06  3.8956121207853371e-06  3.9048091514382338e-06  3.8984723732188730e-06  1.7068308073335566e-05  1.0402155552020256e-05  1.0279863331622181e-05  3.4312189693208865e-06  7.3749820821062913e-06  3.5405359857880162e-06  3.5377222419411058e-06  3.5331134728584398e-06  3.5261846746551896e-06  3.4940402696156758e-06  7.2695312819209407e-06  1.1235521616698617e-05  3.1805879797315212e-06  6.6705136313981384e-06  9.8468867710631947e-06  7.5394753444639817e-06  1.1296837095889781e-05  7.4828646747834415e-06  7.4036586656950230e-06  3.0772832573936161e-06  7.4126663883690495e-06  7.4417091662070808e-06  7.4298826247130623e-06  3.0637796887924800e-06  1.1400880295114658e-05  1.1406316819729247e-05  8.6819205273112053e-06  1.1638420233114551e-05  2.7938083189200897e-06  2.7904467205754776e-06  3.0099903411201863e-06  2.7840073987632998e-06  2.7941795336800612e-06  2.7448997279770116e-06  2.7444674660737915e-06  8.2388742971797703e-06  8.3829635243962118e-06  2.8025779847133557e-06  2.8021463417233912e-06  2.9803459337488933e-06  2.6552049312842234e-06  2.6456740502880298e-06  2.6367766339624329e-06  6.0103607428206074e-06  6.8237446310418657e-06  6.8043106890435141e-06  5.8913121342393554e-06  5.8743846194879869e-06  6.7636980968299991e-06  5.8412117100736965e-06  2.6803585910109771e-06  8.0084616319791895e-06  8.0132647700160901e-06  8.0111093944493639e-06  8.9492977553332529e-06  2.8546289203052860e-06  9.5088816552882874e-06  1.1800742564696661e-05  5.2906322704213864e-06  5.1701757440403867e-06  1.1853455105199227e-05  9.1546385852349865e-06  1.1736756492174537e-05  5.1781772945504950e-06  2.4490528378674772e-06  9.3112665222240559e-06  1.1898926043923276e-05  9.2440620175642492e-06  1.1945337256268807e-05  5.7769023436042371e-06  5.6258972048413886e-06  2.3531010997897047e-06  5.3775528510892630e-06  2.3792954379347734e-06  9.2158926306150695e-06  1.1890935380289288e-05  5.2613362529443932e-06  1.2038279918186070e-05  5.5692520766177864e-06  5.9051139496361413e-06  5.9188834287865385e-06  5.4965733852125972e-06  5.5295427142347187e-06  8.6013239621721955e-06  1.2086291613957094e-05  6.3762652328130969e-06  2.3652234731132091e-06  2.3634719907859768e-06  2.3328858827270935e-06  8.8128520969457824e-06  4.9593394320783912e-06  4.9612082954298474e-06  2.2861653416884427e-06  2.2827725294997090e-06  1.2169949950968488e-05  4.8908874781466787e-06  8.5424554121342213e-06  9.5946225750675338e-06  1.2248416850998520e-05  2.1667922251659852e-06  2.1450367661622068e-06  2.1329601248355619e-06  3.0796467449057457e-06  8.6687240121777041e-06  2.0726429369284508e-06  2.1000729001836541e-06  2.0997486969576940e-06  2.0595326465604770e-06  2.6275716698209156e-06  2.0755607909445852e-06  2.0704285681875742e-06  6.7717631477460085e-06  4.5677716750052300e-06  4.9448766650026667e-06  4.6614974462012343e-06  5.7606713369282024e-06  4.4808902422895062e-06  4.9978975166505627e-06  7.7036344424695591e-06  2.0320795656332608e-06  1.6443081510059886e-05  1.6443338659746230e-05  1.6441261081421213e-05  1.6442208051500544e-05  1.6441364002646073e-05  1.2326970855795131e-05  8.8946096755786785e-06  1.2388670261585457e-05  2.1966671576549630e-06  5.5646009277647951e-06  4.5487300229850714e-06  8.9233511427599876e-06  2.0107944360564327e-06  6.4404368663047242e-06  6.5621976545690721e-06  4.5718983797277279e-06  6.5820237263717421e-06  6.5917182710996405e-06  1.0695734110839069e-05  1.9182089053239051e-06  2.0404679660295596e-06  1.9183108750346306e-06  1.9140719373294498e-06  4.8795082473469739e-06  5.8855828335339534e-06  1.8771608679490689e-06  4.4007874934387492e-06  8.8240411673819412e-06  1.8484317678068358e-06  4.5636019889420597e-06  9.7249461594584702e-06  4.2208227767691279e-06  4.1988393818626031e-06  4.0653458808723273e-06  4.1570194602022325e-06  1.2501323834651621e-05  1.8198461762363471e-06  1.1587221784481054e-05  1.0078756839093164e-05  6.7662086973239827e-06  8.6077761568842205e-06  1.0279085873635339e-05  1.9571429321379742e-06  1.0187443272089007e-05  8.8670882349251477e-06  6.8319654854949866e-06  5.9082123345282924e-06  3.9254774267427361e-06  1.7347827217657385e-06  1.0364736909217244e-05  1.0129890595204559e-05  1.7141029305800097e-06  1.8466111798174122e-06  4.4688003282173358e-06  7.8084691812662315e-06  8.1541222401632010e-06  2.1111947164987924e-06  1.7037177664905028e-06  8.4730861086910885e-06  5.9758138430091115e-06  5.9463133928901516e-06  5.9079246123015731e-06  8.8795403281648902e-06  1.6506199210841179e-06  3.9579734521132279e-06  8.5992707570843371e-06  6.8022846475937489e-06  4.1324775295298402e-06  1.2753522589076159e-05  8.5537561685282965e-06  5.8552719365982995e-06  1.7042311749010450e-06  1.7044838744344179e-06  1.0434836804619257e-05  8.2427264727991825e-06  1.6075619559262680e-06  5.0479626267471834e-06  1.7240783129846470e-06  4.3216566032795936e-06  1.2752005425554628e-05  7.0950501739488070e-06  6.4082737359390947e-06  2.1520259321748009e-06  5.9847927072046404e-06  5.8901269978357506e-06  1.5943342821351159e-06  1.6632095247338289e-06  1.0833384525681405e-05  1.7345143189490125e-06  1.2643483848119984e-05  1.1177756112737525e-05  1.0834213928044213e-05  1.0894316238364567e-05  4.0759333565869325e-06  5.4833900618441337e-06  4.3003473560006408e-06  5.3164232246688316e-06  3.8107957570814454e-06  1.5653202809069111e-06  1.2717414915230542e-05  3.5649047851599040e-06  9.9658972531063389e-06  4.1324165382491785e-06  2.1774418256065693e-06  3.4681856998369054e-06  8.7489551377294298e-06  6.0476432599320359e-06  7.1400013484691619e-06  8.5449714815504203e-06  3.5149637432251542e-06  3.5285205822864158e-06  8.5285516385070636e-06  9.3030173241941767e-06  8.5527822355853901e-06  7.6850433107167007e-06  1.2788190070820394e-05  7.2272160117092535e-06  1.0414739259037162e-05  7.8869214435933243e-06  6.1643928359281958e-06  5.9862993622100318e-06  2.2327602104074274e-06  3.8551375528966297e-06  3.4208922197151414e-06  3.2456932232577570e-06  1.0599344115791883e-05  5.9998280741698730e-06  8.5347604994508756e-06  1.1280981016688869e-05  1.0495328245558891e-05  1.1107165020510803e-05  8.3246305151335463e-06  1.6224767185939501e-05  2.2605783131544615e-06  1.4927484026282117e-06  1.4923538465167157e-06  7.2325034965201890e-06  8.0116896655456722e-06  1.9231242366010246e-06  1.4713665812101190e-06  6.2004032643023661e-06  1.4957590924410195e-06  9.4146789299636744e-06  9.0242094666976919e-06  1.5056968729393722e-06  1.4520530599310850e-06  1.2923755826300803e-05  1.4803215020506165e-06  1.4896438077408380e-06  1.4476876504898025e-06  6.2452055806927978e-06  1.1222748731279567e-05  1.1358771234843682e-05  6.4633722840027373e-06  3.6200555495440009e-06  3.5433973390365059e-06  3.5068707697908221e-06  3.8698807444825610e-06  3.4322080183981072e-06  3.2983958876952667e-06  3.3114659594001886e-06  3.8966302018710284e-06  3.2677511663771130e-06  3.9227023238515144e-06  3.6462089245130649e-06  1.2845655812278235e-05  1.5107218638292296e-06  6.7125706327992807e-06  9.0402096992898521e-06  1.7884738099830259e-06  3.3634179083913521e-06  4.0944092938107171e-06  7.6274860303747644e-06  1.4080325228457973e-06  7.5102030192396279e-06  1.3992144378535460e-06  1.1234359358133351e-05  1.0460775607722167e-05  3.2651623550500097e-06  9.1583806609636719e-06  4.0184285685020726e-06  1.4952951467275736e-06  1.5326488208136059e-06  8.6821823386235930e-06  8.4146760734900035e-06  1.3771835640031213e-06  3.2458184813001617e-06  6.1243812169992386e-06  7.4703078191749072e-06  9.4553463252504551e-06  1.1278273251004319e-05  9.300023452452979