<?xml version="1.0"?>
<VTKFile type="UnstructuredGrid"  version="0.1"  >
<UnstructuredGrid>
<Piece  NumberOfPoints="1089" NumberOfCells="2048">
<Points>
<DataArray  type="Float64"  NumberOfComponents="3"  format="ascii">0 0 0  0.03125 0 0  0.0625 0 0  0.09375 0 0  0.125 0 0  0.15625 0 0  0.1875 0 0  0.21875 0 0  0.25 0 0  0.28125 0 0  0.3125 0 0  0.34375 0 0  0.375 0 0  0.40625 0 0  0.4375 0 0  0.46875 0 0  0.5 0 0  0.53125 0 0  0.5625 0 0  0.59375 0 0  0.625 0 0  0.65625 0 0  0.6875 0 0  0.71875 0 0  0.75 0 0  0.78125 0 0  0.8125 0 0  0.84375 0 0  0.875 0 0  0.90625 0 0  0.9375 0 0  0.96875 0 0  1 0 0  0 0.03125 0  0.03125 0.03125 0  0.0625 0.03125 0  0.09375 0.03125 0  0.125 0.03125 0  0.15625 0.03125 0  0.1875 0.03125 0  0.21875 0.03125 0  0.25 0.03125 0  0.28125 0.03125 0  0.3125 0.03125 0  0.34375 0.03125 0  0.375 0.03125 0  0.40625 0.03125 0  0.4375 0.03125 0  0.46875 0.03125 0  0.5 0.03125 0  0.53125 0.03125 0  0.5625 0.03125 0  0.59375 0.03125 0  0.625 0.03125 0  0.65625 0.03125 0  0.6875 0.03125 0  0.71875 0.03125 0  0.75 0.03125 0  0.78125 0.03125 0  0.8125 0.03125 0  0.84375 0.03125 0  0.875 0.03125 0  0.90625 0.03125 0  0.9375 0.03125 0  0.96875 0.03125 0  1 0.03125 0  0 0.0625 0  0.03125 0.0625 0  0.0625 0.0625 0  0.09375 0.0625 0  0.125 0.0625 0  0.15625 0.0625 0  0.1875 0.0625 0  0.21875 0.0625 0  0.25 0.0625 0  0.28125 0.0625 0  0.3125 0.0625 0  0.34375 0.0625 0  0.375 0.0625 0  0.40625 0.0625 0  0.4375 0.0625 0  0.46875 0.0625 0  0.5 0.0625 0  0.53125 0.0625 0  0.5625 0.0625 0  0.59375 0.0625 0  0.625 0.0625 0  0.65625 0.0625 0  0.6875 0.0625 0  0.71875 0.0625 0  0.75 0.0625 0  0.78125 0.0625 0  0.8125 0.0625 0  0.84375 0.0625 0  0.875 0.0625 0  0.90625 0.0625 0  0.9375 0.0625 0  0.96875 0.0625 0  1 0.0625 0  0 0.09375 0  0.03125 0.09375 0  0.0625 0.09375 0  0.09375 0.09375 0  0.125 0.09375 0  0.15625 0.09375 0  0.1875 0.09375 0  0.21875 0.09375 0  0.25 0.09375 0  0.28125 0.09375 0  0.3125 0.09375 0  0.34375 0.09375 0  0.375 0.09375 0  0.40625 0.09375 0  0.4375 0.09375 0  0.46875 0.09375 0  0.5 0.09375 0  0.53125 0.09375 0  0.5625 0.09375 0  0.59375 0.09375 0  0.625 0.09375 0  0.65625 0.09375 0  0.6875 0.09375 0  0.71875 0.09375 0  0.75 0.09375 0  0.78125 0.09375 0  0.8125 0.09375 0  0.84375 0.09375 0  0.875 0.09375 0  0.90625 0.09375 0  0.9375 0.09375 0  0.96875 0.09375 0  1 0.09375 0  0 0.125 0  0.03125 0.125 0  0.0625 0.125 0  0.09375 0.125 0  0.125 0.125 0  0.15625 0.125 0  0.1875 0.125 0  0.21875 0.125 0  0.25 0.125 0  0.28125 0.125 0  0.3125 0.125 0  0.34375 0.125 0  0.375 0.125 0  0.40625 0.125 0  0.4375 0.125 0  0.46875 0.125 0  0.5 0.125 0  0.53125 0.125 0  0.5625 0.125 0  0.59375 0.125 0  0.625 0.125 0  0.65625 0.125 0  0.6875 0.125 0  0.71875 0.125 0  0.75 0.125 0  0.78125 0.125 0  0.8125 0.125 0  0.84375 0.125 0  0.875 0.125 0  0.90625 0.125 0  0.9375 0.125 0  0.96875 0.125 0  1 0.125 0  0 0.15625 0  0.03125 0.15625 0  0.0625 0.15625 0  0.09375 0.15625 0  0.125 0.15625 0  0.15625 0.15625 0  0.1875 0.15625 0  0.21875 0.15625 0  0.25 0.15625 0  0.28125 0.15625 0  0.3125 0.15625 0  0.34375 0.15625 0  0.375 0.15625 0  0.40625 0.15625 0  0.4375 0.15625 0  0.46875 0.15625 0  0.5 0.15625 0  0.53125 0.15625 0  0.5625 0.15625 0  0.59375 0.15625 0  0.625 0.15625 0  0.65625 0.15625 0  0.6875 0.15625 0  0.71875 0.15625 0  0.75 0.15625 0  0.78125 0.15625 0  0.8125 0.15625 0  0.84375 0.15625 0  0.875 0.15625 0  0.90625 0.15625 0  0.9375 0.15625 0  0.96875 0.15625 0  1 0.15625 0  0 0.1875 0  0.03125 0.1875 0  0.0625 0.1875 0  0.09375 0.1875 0  0.125 0.1875 0  0.15625 0.1875 0  0.1875 0.1875 0  0.21875 0.1875 0  0.25 0.1875 0  0.28125 0.1875 0  0.3125 0.1875 0  0.34375 0.1875 0  0.375 0.1875 0  0.40625 0.1875 0  0.4375 0.1875 0  0.46875 0.1875 0  0.5 0.1875 0  0.53125 0.1875 0  0.5625 0.1875 0  0.59375 0.1875 0  0.625 0.1875 0  0.65625 0.1875 0  0.6875 0.1875 0  0.71875 0.1875 0  0.75 0.1875 0  0.78125 0.1875 0  0.8125 0.1875 0  0.84375 0.1875 0  0.875 0.1875 0  0.90625 0.1875 0  0.9375 0.1875 0  0.96875 0.1875 0  1 0.1875 0  0 0.21875 0  0.03125 0.21875 0  0.0625 0.21875 0  0.09375 0.21875 0  0.125 0.21875 0  0.15625 0.21875 0  0.1875 0.21875 0  0.21875 0.21875 0  0.25 0.21875 0  0.28125 0.21875 0  0.3125 0.21875 0  0.34375 0.21875 0  0.375 0.21875 0  0.40625 0.21875 0  0.4375 0.21875 0  0.46875 0.21875 0  0.5 0.21875 0  0.53125 0.21875 0  0.5625 0.21875 0  0.59375 0.21875 0  0.625 0.21875 0  0.65625 0.21875 0  0.6875 0.21875 0  0.71875 0.21875 0  0.75 0.21875 0  0.78125 0.21875 0  0.8125 0.21875 0  0.84375 0.21875 0  0.875 0.21875 0  0.90625 0.21875 0  0.9375 0.21875 0  0.96875 0.21875 0  1 0.21875 0  0 0.25 0  0.03125 0.25 0  0.0625 0.25 0  0.09375 0.25 0  0.125 0.25 0  0.15625 0.25 0  0.1875 0.25 0  0.21875 0.25 0  0.25 0.25 0  0.28125 0.25 0  0.3125 0.25 0  0.34375 0.25 0  0.375 0.25 0  0.40625 0.25 0  0.4375 0.25 0  0.46875 0.25 0  0.5 0.25 0  0.53125 0.25 0  0.5625 0.25 0  0.59375 0.25 0  0.625 0.25 0  0.65625 0.25 0  0.6875 0.25 0  0.71875 0.25 0  0.75 0.25 0  0.78125 0.25 0  0.8125 0.25 0  0.84375 0.25 0  0.875 0.25 0  0.90625 0.25 0  0.9375 0.25 0  0.96875 0.25 0  1 0.25 0  0 0.28125 0  0.03125 0.28125 0  0.0625 0.28125 0  0.09375 0.28125 0  0.125 0.28125 0  0.15625 0.28125 0  0.1875 0.28125 0  0.21875 0.28125 0  0.25 0.28125 0  0.28125 0.28125 0  0.3125 0.28125 0  0.34375 0.28125 0  0.375 0.28125 0  0.40625 0.28125 0  0.4375 0.28125 0  0.46875 0.28125 0  0.5 0.28125 0  0.53125 0.28125 0  0.5625 0.28125 0  0.59375 0.28125 0  0.625 0.28125 0  0.65625 0.28125 0  0.6875 0.28125 0  0.71875 0.28125 0  0.75 0.28125 0  0.78125 0.28125 0  0.8125 0.28125 0  0.84375 0.28125 0  0.875 0.28125 0  0.90625 0.28125 0  0.9375 0.28125 0  0.96875 0.28125 0  1 0.28125 0  0 0.3125 0  0.03125 0.3125 0  0.0625 0.3125 0  0.09375 0.3125 0  0.125 0.3125 0  0.15625 0.3125 0  0.1875 0.3125 0  0.21875 0.3125 0  0.25 0.3125 0  0.28125 0.3125 0  0.3125 0.3125 0  0.34375 0.3125 0  0.375 0.3125 0  0.40625 0.3125 0  0.4375 0.3125 0  0.46875 0.3125 0  0.5 0.3125 0  0.53125 0.3125 0  0.5625 0.3125 0  0.59375 0.3125 0  0.625 0.3125 0  0.65625 0.3125 0  0.6875 0.3125 0  0.71875 0.3125 0  0.75 0.3125 0  0.78125 0.3125 0  0.8125 0.3125 0  0.84375 0.3125 0  0.875 0.3125 0  0.90625 0.3125 0  0.9375 0.3125 0  0.96875 0.3125 0  1 0.3125 0  0 0.34375 0  0.03125 0.34375 0  0.0625 0.34375 0  0.09375 0.34375 0  0.125 0.34375 0  0.15625 0.34375 0  0.1875 0.34375 0  0.21875 0.34375 0  0.25 0.34375 0  0.28125 0.34375 0  0.3125 0.34375 0  0.34375 0.34375 0  0.375 0.34375 0  0.40625 0.34375 0  0.4375 0.34375 0  0.46875 0.34375 0  0.5 0.34375 0  0.53125 0.34375 0  0.5625 0.34375 0  0.59375 0.34375 0  0.625 0.34375 0  0.65625 0.34375 0  0.6875 0.34375 0  0.71875 0.34375 0  0.75 0.34375 0  0.78125 0.34375 0  0.8125 0.34375 0  0.84375 0.34375 0  0.875 0.34375 0  0.90625 0.34375 0  0.9375 0.34375 0  0.96875 0.34375 0  1 0.34375 0  0 0.375 0  0.03125 0.375 0  0.0625 0.375 0  0.09375 0.375 0  0.125 0.375 0  0.15625 0.375 0  0.1875 0.375 0  0.21875 0.375 0  0.25 0.375 0  0.28125 0.375 0  0.3125 0.375 0  0.34375 0.375 0  0.375 0.375 0  0.40625 0.375 0  0.4375 0.375 0  0.46875 0.375 0  0.5 0.375 0  0.53125 0.375 0  0.5625 0.375 0  0.59375 0.375 0  0.625 0.375 0  0.65625 0.375 0  0.6875 0.375 0  0.71875 0.375 0  0.75 0.375 0  0.78125 0.375 0  0.8125 0.375 0  0.84375 0.375 0  0.875 0.375 0  0.90625 0.375 0  0.9375 0.375 0  0.96875 0.375 0  1 0.375 0  0 0.40625 0  0.03125 0.40625 0  0.0625 0.40625 0  0.09375 0.40625 0  0.125 0.40625 0  0.15625 0.40625 0  0.1875 0.40625 0  0.21875 0.40625 0  0.25 0.40625 0  0.28125 0.40625 0  0.3125 0.40625 0  0.34375 0.40625 0  0.375 0.40625 0  0.40625 0.40625 0  0.4375 0.40625 0  0.46875 0.40625 0  0.5 0.40625 0  0.53125 0.40625 0  0.5625 0.40625 0  0.59375 0.40625 0  0.625 0.40625 0  0.65625 0.40625 0  0.6875 0.40625 0  0.71875 0.40625 0  0.75 0.40625 0  0.78125 0.40625 0  0.8125 0.40625 0  0.84375 0.40625 0  0.875 0.40625 0  0.90625 0.40625 0  0.9375 0.40625 0  0.96875 0.40625 0  1 0.40625 0  0 0.4375 0  0.03125 0.4375 0  0.0625 0.4375 0  0.09375 0.4375 0  0.125 0.4375 0  0.15625 0.4375 0  0.1875 0.4375 0  0.21875 0.4375 0  0.25 0.4375 0  0.28125 0.4375 0  0.3125 0.4375 0  0.34375 0.4375 0  0.375 0.4375 0  0.40625 0.4375 0  0.4375 0.4375 0  0.46875 0.4375 0  0.5 0.4375 0  0.53125 0.4375 0  0.5625 0.4375 0  0.59375 0.4375 0  0.625 0.4375 0  0.65625 0.4375 0  0.6875 0.4375 0  0.71875 0.4375 0  0.75 0.4375 0  0.78125 0.4375 0  0.8125 0.4375 0  0.84375 0.4375 0  0.875 0.4375 0  0.90625 0.4375 0  0.9375 0.4375 0  0.96875 0.4375 0  1 0.4375 0  0 0.46875 0  0.03125 0.46875 0  0.0625 0.46875 0  0.09375 0.46875 0  0.125 0.46875 0  0.15625 0.46875 0  0.1875 0.46875 0  0.21875 0.46875 0  0.25 0.46875 0  0.28125 0.46875 0  0.3125 0.46875 0  0.34375 0.46875 0  0.375 0.46875 0  0.40625 0.46875 0  0.4375 0.46875 0  0.46875 0.46875 0  0.5 0.46875 0  0.53125 0.46875 0  0.5625 0.46875 0  0.59375 0.46875 0  0.625 0.46875 0  0.65625 0.46875 0  0.6875 0.46875 0  0.71875 0.46875 0  0.75 0.46875 0  0.78125 0.46875 0  0.8125 0.46875 0  0.84375 0.46875 0  0.875 0.46875 0  0.90625 0.46875 0  0.9375 0.46875 0  0.96875 0.46875 0  1 0.46875 0  0 0.5 0  0.03125 0.5 0  0.0625 0.5 0  0.09375 0.5 0  0.125 0.5 0  0.15625 0.5 0  0.1875 0.5 0  0.21875 0.5 0  0.25 0.5 0  0.28125 0.5 0  0.3125 0.5 0  0.34375 0.5 0  0.375 0.5 0  0.40625 0.5 0  0.4375 0.5 0  0.46875 0.5 0  0.5 0.5 0  0.53125 0.5 0  0.5625 0.5 0  0.59375 0.5 0  0.625 0.5 0  0.65625 0.5 0  0.6875 0.5 0  0.71875 0.5 0  0.75 0.5 0  0.78125 0.5 0  0.8125 0.5 0  0.84375 0.5 0  0.875 0.5 0  0.90625 0.5 0  0.9375 0.5 0  0.96875 0.5 0  1 0.5 0  0 0.53125 0  0.03125 0.53125 0  0.0625 0.53125 0  0.09375 0.53125 0  0.125 0.53125 0  0.15625 0.53125 0  0.1875 0.53125 0  0.21875 0.53125 0  0.25 0.53125 0  0.28125 0.53125 0  0.3125 0.53125 0  0.34375 0.53125 0  0.375 0.53125 0  0.40625 0.53125 0  0.4375 0.53125 0  0.46875 0.53125 0  0.5 0.53125 0  0.53125 0.53125 0  0.5625 0.53125 0  0.59375 0.53125 0  0.625 0.53125 0  0.65625 0.53125 0  0.6875 0.53125 0  0.71875 0.53125 0  0.75 0.53125 0  0.78125 0.531
[...]
<PointData  Scalars="f_20"> 
<DataArray  type="Float64"  Name="f_20"  format="ascii">0.0000000000000000e+00  4.2051584054798259e-02  8.3284250597048803e-02  1.2289671023860062e-01  1.6012254503770967e-01  1.9424670043624942e-01  2.2462089411692812e-01  2.5067765826245580e-01  2.7194278746193806e-01  2.8804601948166542e-01  2.9872981952877409e-01  3.0385615900007745e-01  3.0341116853111227e-01  2.9750750253825597e-01  2.8638419270307613e-01  2.7040372146796099e-01  2.5004605441778333e-01  2.2589946904905819e-01  1.9864822128497620e-01  1.6905738117014557e-01  1.3795549811221541e-01  1.0621607069250395e-01  7.4739069146877460e-02  4.4434018739831271e-02  1.6206513244012906e-02  -9.0492543217097834e-03  -3.0447706685413536e-02  -4.7090542704362540e-02  -5.8007608333636454e-02  -6.2007548886419170e-02  -5.7270630843789999e-02  -4.0063987866374641e-02  0.0000000000000000e+00  0.0000000000000000e+00  3.7607962989688340e-02  7.4506436938078208e-02  1.1000087241438633e-01  1.4342627548613077e-01  1.7416119344570932e-01  2.0164079713601052e-01  2.2536883270239985e-01  2.4492826913087540e-01  2.5999052056555538e-01  2.7032316270460355e-01  2.7579607740565321e-01  2.7638593792299282e-01  2.7217888650081307e-01  2.6337117003987415e-01  2.5026742196311402e-01  2.3327625756718362e-01  2.1290293186611253e-01  1.8973901333086418e-01  1.6444933265038705e-01  1.3775681434781656e-01  1.1042612215813048e-01  8.3247304362122798e-02  5.7020826756263479e-02  3.2545613831959093e-02  1.0612150749495853e-02  -7.9963890822208773e-03  -2.2490186772423173e-02  -3.2037940761841244e-02  -3.5699761247330701e-02  -3.2328698172592332e-02  -2.0574891890887546e-02  0.0000000000000000e+00  0.0000000000000000e+00  3.3873830961465533e-02  6.7132661733496732e-02  9.9174066930326113e-02  1.2942049083387003e-01  1.5733100008593501e-01  1.8241226654012516e-01  2.0422860198100867e-01  2.2241092614292665e-01  2.3666461127592966e-01  2.4677619691899863e-01  2.5261898882979439e-01  2.5415752592213076e-01  2.5145080617333243e-01  2.4465401624635780e-01  2.3401835278580288e-01  2.1988842897718183e-01  2.0269680554060968e-01  1.8295541171752866e-01  1.6124400059266622e-01  1.3819621889235534e-01  1.1448424432692565e-01  9.0803167393318271e-02  6.7856353156499405e-02  4.6342956436176530e-02  2.6948629014345173e-02  1.0340184969062324e-02  -2.8358750494287569e-03  -1.1954206860273524e-02  -1.6424857217900903e-02  -1.5769508721706054e-02  -9.9068815278554097e-03  0.0000000000000000e+00  0.0000000000000000e+00  3.0754699104984438e-02  6.0976312033149994e-02  9.0142242481158236e-02  1.1775061997903601e-01  1.4333004696139603e-01  1.6644865997666428e-01  1.8672236527333419e-01  2.0382218341398753e-01  2.1748072242744831e-01  2.2749787851556946e-01  2.3374590903211157e-01  2.3617399513937737e-01  2.3481227525217310e-01  2.2977508028266980e-01  2.2126279415356828e-01  2.0956152129882147e-01  1.9503971506079687e-01  1.7814119809152740e-01  1.5937454939517015e-01  1.3929947016257416e-01  1.1851124663736104e-01  9.7624638134538783e-02  7.7258393394730077e-02  5.8021196713594514e-02  4.0499209468088410e-02  2.5244369263475737e-02  1.2760706399812890e-02  3.4818449114122352e-03  -2.2759522435798199e-03  -4.4175980228589968e-03  -3.2831255121730154e-03  0.0000000000000000e+00  0.0000000000000000e+00  2.8168653360912642e-02  5.5875644554567394e-02  8.2667970041121364e-02  1.0810969652875325e-01  1.3178989846670450e-01  1.5332993568816553e-01  1.7238995277162167e-01  1.8867457839948482e-01  2.0193792805117999e-01  2.1198815139721053e-01  2.1869187496818215e-01  2.2197889764344908e-01  2.2184731520074558e-01  2.1836883648086697e-01  2.1169347729374510e-01  2.0205229438837014e-01  1.8975664275004520e-01  1.7519280778664692e-01  1.5881173114369521e-01  1.4111459425048045e-01  1.2263581702638696e-01  1.0392526837935584e-01  8.5531132859416395e-02  6.7984105871318604e-02  5.1782589660042115e-02  3.7377355073658886e-02  2.5152478844246099e-02  1.5396829849033209e-02  8.2568006105889161e-03  3.6581941847364189e-03  1.1919774525915125e-03  0.0000000000000000e+00  0.0000000000000000e+00  2.6044269571250972e-02  5.1689641929033303e-02  7.6544293489040058e-02  1.0023028734038313e-01  1.2238988380110855e-01  1.4269114734101562e-01  1.6083272333363480e-01  1.7654778102509561e-01  1.8960730423254532e-01  1.9982315290230937e-01  2.0705156114715956e-01  2.1119784986679330e-01  2.1222292853336289e-01  2.1015150249539838e-01  2.0508085830620668e-01  1.9718804622617628e-01  1.8673279019076891e-01  1.7405396911472859e-01  1.5955898053099760e-01  1.4370711688776669e-01  1.2698943155998446e-01  1.0990789269461732e-01  9.2955918812726662e-02  7.6601097077239236e-02  6.1269510004130959e-02  4.7329911668796958e-02  3.5074998465568621e-02  2.4696186636384489e-02  1.6248128151509663e-02  9.6015960219596706e-03  4.3928409715037744e-03  0.0000000000000000e+00  0.0000000000000000e+00  2.4318782356546741e-02  4.8294357538635507e-02  7.1589265308378142e-02  9.3877244655235975e-02  1.1484810928921145e-01  1.3421179356718604e-01  1.5170138580653825e-01  1.6707510975542461e-01  1.8011747942576478e-01  1.9064026326533864e-01  1.9848438949149974e-01  2.0352428393257704e-01  2.0567598032534690e-01  2.0490933662809438e-01  2.0126285365820848e-01  1.9485756977277349e-01  1.8590540215706636e-01  1.7470803134591606e-01  1.6164496091589342e-01  1.4715260873193914e-01  1.3169862986670067e-01  1.1575611860365481e-01  9.9780986532018251e-02  8.4193616132136162e-02  6.9363899534299986e-02  5.5597567445147086e-02  4.3121338761550776e-02  3.2064764490515658e-02  2.2437921707559341e-02  1.4107218713982378e-02  6.7777899033031903e-03  0.0000000000000000e+00  0.0000000000000000e+00  2.2936500577420835e-02  4.5579733579701812e-02  6.7641140106964648e-02  8.8841232486315175e-02  1.0891326215934762e-01  1.2760584168678032e-01  1.4468420692167397e-01  1.5992994691483575e-01  1.7313938422198588e-01  1.8412145691502435e-01  1.9269689511467158e-01  1.9870134468763265e-01  2.0199515912602661e-01  2.0248110614049777e-01  2.0012809487162106e-01  1.9499530024158979e-01  1.8724880080277995e-01  1.7716385822752867e-01  1.6511032775286844e-01  1.5152435711059667e-01  1.3687358483923151e-01  1.2162364340583350e-01  1.0621121444642129e-01  9.1025065323371221e-02  7.6393406999665570e-02  6.2574523488397843e-02  4.9747808958289438e-02  3.8003539998493402e-02  2.7331554330949220e-02  1.7611561493029289e-02  8.6110985173315866e-03  0.0000000000000000e+00  0.0000000000000000e+00  2.1847482074185732e-02  4.3446918830537425e-02  6.4554266103408808e-02  8.4933074631845573e-02  1.0435723878481550e-01  1.2261239445068016e-01  1.3949541603301321e-01  1.5481155017879059e-01  1.6836916189371762e-01  1.7997310468528183e-01  1.8941939704790858e-01  1.9649565690448131e-01  2.0099234590189852e-01  2.0272781468027354e-01  2.0158495159189357e-01  1.9755065492445006e-01  1.9074504589962929e-01  1.8142870032784902e-01  1.6998351000289372e-01  1.5687249523655714e-01  1.4259073468317995e-01  1.2762030472755703e-01  1.1239742884870063e-01  9.7293458371468564e-02  8.2606381781816118e-02  6.8557812994369166e-02  5.5291291508570144e-02  4.2869853991247688e-02  3.1273140903818754e-02  2.0396359975296395e-02  1.0055039117384049e-02  0.0000000000000000e+00  0.0000000000000000e+00  2.1006499238102990e-02  4.1806154794947953e-02  6.2195789431531388e-02  8.1979092816788349e-02  1.0096881551809606e-01  1.1898723544864753e-01  1.3586397599944028e-01  1.5143020065322893e-01  1.6550869043914640e-01  1.7790083404586537e-01  1.8837433866557721e-01  1.9665873978313461e-01  2.0245741891762528e-01  2.0548210518147325e-01  2.0550760728371550e-01  2.0243346960887451e-01  1.9633159834030145e-01  1.8746063974300817e-01  1.7623978128580536e-01  1.6319064588250798e-01  1.4886709752746857e-01  1.3379357313191109e-01  1.1842438064225301e-01  1.0312544976991912e-01  8.8172283417967831e-02  7.3755639137076612e-02  5.9988452601729712e-02  4.6911036379126331e-02  3.4494673633717221e-02  2.2645665358645557e-02  1.1212689835020597e-02  0.0000000000000000e+00  0.0000000000000000e+00  2.0372340414130580e-02  4.0575332630830283e-02  6.0443355557853816e-02  7.9817735937649320e-02  9.8548819496301260e-02  1.1649589959860901e-01  1.3352356012427036e-01  1.4949266794587274e-01  1.6424469675949471e-01  1.7758018668930545e-01  1.8923647555683776e-01  1.9887535812819021e-01  2.0609467478364288e-01  2.1047440777514215e-01  2.1165542118857689e-01  2.0943143862094160e-01  2.0382217277669690e-01  1.9509759221023687e-01  1.8374169284993813e-01  1.7036923559207801e-01  1.5562624930309490e-01  1.4010586207317971e-01  1.2429764627259479e-01  1.0857131944088452e-01  9.3183929307297908e-02  7.8296929401105719e-02  6.3993277294530360e-02  5.0290320310276242e-02  3.7148599178407009e-02  2.4478869345038758e-02  1.2150037929411404e-02  0.0000000000000000e+00  0.0000000000000000e+00  1.9907493388156099e-02  3.9679333406291276e-02  5.9184029944895314e-02  7.8297904728052758e-02  9.6907495363867155e-02  1.1490940899846053e-01  1.3220551658033988e-01  1.4869064540788557e-01  1.6423022625950351e-01  1.7862815117675390e-01  1.9159142298557932e-01  2.0270674837266173e-01  2.1145007099785115e-01  2.1724600535275720e-01  2.1957631372666442e-01  2.1811040754920674e-01  2.1281129014361189e-01  2.0397263348833619e-01  1.9216956014489203e-01  1.7814285753471892e-01  1.6266188846465751e-01  1.4641207114066990e-01  1.2993237537687594e-01  1.1360241357312334e-01  9.7661833962764219e-02  8.2241549950068452e-02  6.7392573442262127e-02  5.3106775586577289e-02  3.9330056691205907e-02  2.5971045320504593e-02  1.2908560543684772e-02  0.0000000000000000e+00  0.0000000000000000e+00  1.9578238567057902e-02  3.9050231620999992e-02  5.8314627411860505e-02  7.7279377013001527e-02  9.5864870872800143e-02  1.1400416994477387e-01  1.3163745947412198e-01  1.4869657802420372e-01  1.6507550346531730e-01  1.8058617301392849e-01  1.9490765184032932e-01  2.0754893577775768e-01  2.1785471801028050e-01  2.2507897431461266e-01  2.2852718122480992e-01  2.2773149583087970e-01  2.2259520531836688e-01  2.1344501909184296e-01  2.0096669833954584e-01  1.8605112954769251e-01  1.6961333103003071e-01  1.5244724509297061e-01  1.3515018341193516e-01  1.1811466911006317e-01  1.0156246872995187e-01  8.5592087262148966e-02  7.0220421173406100e-02  5.5411424624198923e-02  4.1092989780316093e-02  2.7166472475551366e-02  1.3513104021670063e-02  0.0000000000000000e+00  0.0000000000000000e+00  1.9355135926813562e-02  3.8628351475764287e-02  5.7743498360900189e-02  7.6635549640594741e-02  9.5254712958933424e-02  1.1356736907467720e-01  1.3155018967439644e-01  1.4917190355213922e-01  1.6635685004696887e-01  1.8292859155682967e-01  1.9854286998278317e-01  2.1263540758434049e-01  2.2442265249584725e-01  2.3298888522547517e-01  2.3746267635945079e-01  2.3723827570859690e-01  2.3216034237267949e-01  2.2259242274929913e-01  2.0933699811092399e-01  1.9344185895044441e-01  1.7597344462524653e-01  1.5783789799119463e-01  1.3969247017970804e-01  1.2194287745819210e-01  1.0479287270304069e-01  8.8308539048370396e-02  7.2472746887349393e-02  5.7221270174997348e-02  4.2462733855378527e-02  2.8088404640276010e-02  1.3977297489266186e-02  0.0000000000000000e+00  0.0000000000000000e+00  1.9213824335634691e-02  3.8364019222488145e-02  5.7393560702813907e-02  7.6258287336413544e-02  9.4931996002494315e-02  1.1340819063927830e-01  1.3169416714791671e-01  1.4979066248380041e-01  1.6764959159323756e-01  1.8510702986787553e-01  2.0180169147757079e-01  2.1710893362592040e-01  2.3013624156047885e-01  2.3982148016024807e-01  2.4513918828977210e-01  2.4536294935448935e-01  2.4028627919701312e-01  2.3030598269152519e-01  2.1632865477100136e-01  1.9954177705508280e-01  1.8114633216228729e-01  1.6214782990011303e-01  1.4325628519263670e-01  1.2488876243146139e-01  1.0723298082108719e-01  9.0326554039089915e-02  7.4122613090717118e-02  5.8532182721576800e-02  4.3446473235707044e-02  2.8746625025684199e-02  1.4307560135062958e-02  0.0000000000000000e+00  0.0000000000000000e+00  1.9135979447101506e-02  3.8219684671987775e-02  5.7206038893740450e-02  7.6064072348842215e-02  9.4782743042289383e-02  1.1337332643909900e-01  1.3186360653821619e-01  1.5027623773657714e-01  1.6858265190516877e-01  1.8662882024974589e-01  2.0404367783694549e-01  2.2016328643616373e-01  2.3402214238815777e-01  2.4445853441443993e-01  2.5034108784443887e-01  2.5085952822811763e-01  2.4577105242778818e-01  2.3549461493417920e-01  2.2100851249624887e-01  2.0359714586477429e-01  1.8455520470594580e-01  1.6495757427136543e-01  1.4555119145142442e-01  1.2676115881559338e-01  1.0876416143005554e-01  9.1578148227737771e-02  7.5135702110267544e-02  5.9330684338294415e-02  4.4042042934221468e-02  2.9143432777243634e-02  1.4506162220849198e-02  0.0000000000000000e+00  0.0000000000000000e+00  1.9110222789149103e-02  3.8171951321631314e-02  5.7144092898084031e-02  7.6000094276957308e-02  9.4734023827423755e-02  1.1336321048247405e-01  1.3192252697497728e-01  1.5044239541160917e-01  1.6890147647707032e-01  1.8715000404114984e-01  2.0481467359299463e-01  2.2121912722599890e-01  2.3537333215239961e-01  2.4608086782445368e-01  2.5217219988539763e-01  2.5280550599614099e-01  2.4772262939460254e-01  2.3734812217958437e-01  2.2268444789759864e-01  2.0505041536736629e-01  1.8577502508351512e-01  1.6595929923628278e-01  1.4636468219310522e-01  1.2742009074629537e-01  1.0929876117049825e-01  9.2011758815511047e-02  7.5484262269261637e-02  5.9603846013513928e-02  4.4244888823457215e-02  2.9278166387400738e-02  1.4573473994355657e-02  0.0000000000000000e+00  0.0000000000000000e+00  1.9132767343320783e-02  3.8213026210994636e-02  5.7195434484638097e-02  7.6048698048786695e-02  9.4761375261388545e-02  1.1334428788034316e-01  1.3182481487287515e-01  1.5022548810199879e-01  1.6851827528426408e-01  1.8655076248437721e-01  2.0395479339315498e-01  2.2007030319989918e-01  2.3393555225409995e-01  2.4439087885111974e-01  2.5030382058694400e-01  2.5085952822811763e-01  2.4580831968528299e-01  2.3556227049749934e-01  2.2109510263030668e-01  2.0369012910103873e-01  1.8464408914973623e-01  1.6503563203673399e-01  1.4561556807232878e-01  1.2681190845017148e-01  1.0880295309539645e-01  9.1607186786493461e-02  7.5157069891168299e-02  5.9346058638349887e-02  4.4052647343323773e-02  2.9150091238236735e-02  1.4509374324629886e-02  0.0000000000000000e+00  0.0000000000000000e+00  1.9207638396404925e-02  3.8351217153569428e-02  5.7373228218503471e-02  7.6228924598564868e-02  9.4891390773941403e-02  1.1335333438860788e-01  1.3162135984887577e-01  1.4969603763611000e-01  1.6753030874061314e-01  1.8496320542724412e-01  2.0163869285350786e-01  2.1693906609188945e-01  2.2997850829553923e-01  2.3969848479741110e-01  2.4507151742590064e-01  2.4536294935448935e-01  2.4035395006088447e-01  2.3042897805436213e-01  2.1648638803594095e-01  1.9971164458911361e-01  1.8130933078635000e-01  1.6229165434074419e-01  1.4337556804526064e-01  1.2498338727915148e-01  1.0730578812012787e-01  9.0381410289760100e-02  7.4163218319269919e-02  5.8561545459425358e-02  4.3466805720017355e-02  2.8759427094602847e-02  1.4313746074292678e-02  0.0000000000000000e+00  0.0000000000000000e+00  1.9346413284277258e-02  3.8610346473927477e-02  5.7715028231274404e-02  7.6594691306436646e-02  9.5198662242619345e-02  1.1349236408282404e-01  1.3145167981720882e-01  1.4904524641461603e-01  1.6619882980699466e-01  1.8273982764751018e-01  1.9833063413898191e-01  2.1241564354678774e-01  2.2421958130853145e-01  2.3283107550247692e-01  2.3737602502318797e-01  2.3723827570859685e-01  2.3224699370894225e-01  2.2275023247229730e-01  2.0954006929823965e-01  1.9366162298799694e-01  1.7618568046904745e-01  1.5802666190051384e-01  1.3985049041968181e-01  1.2206953459571490e-01  1.0489138256022801e-01  8.8383544040223180e-02  7.2528797603663181e-02  5.7262128509155248e-02  4.2491203985004139e-02  2.8106409642112692e-02  1.3986020131802427e-02  0.0000000000000000e+00  0.0000000000000000e+00  1.9567547106720904e-02  3.9028237511365090e-02  5.8280049336012434e-02  7.7230157541802166e-02  9.5798058745368758e-02  1.1391588458100771e-01  1.3152312416795811e-01  1.4855170298965553e-01  1.6489729976036566e-01  1.8037603905007929e-01  1.9467401414109303e-01  2.0730920618491647e-01  2.1763474025591684e-01  2.2490886215055217e-01  2.2843404493833530e-01  2.2773149583087965e-01  2.2268834160484136e-01  2.1361513125590331e-01  2.0118667609390931e-01  1.8629085914053350e-01  1.6984696872926661e-01  1.5265737905681939e-01  1.3532838711688627e-01  1.1825954414461090e-01  1.0167680403611530e-01  8.5680372625914714e-02  7.0287233300837110e-02  5.5460644095397998e-02  4.1127567856163949e-02  2.7188466585186116e-02  1.3523795482006988e-02  0.0000000000000000e+00  0.0000000000000000e+00  1.9895452053063336e-02  3.9654660989360865e-02  5.9145502584678392e-02  7.8243588997891966e-02  9.6834678138380884e-02  1.1481462118108086e-01  1.3208481740216996e-01  1.4854040834863208e-01  1.6404865330661034e-01  1.7841751785329624e-01  1.9136056080083877e-01  2.0247265445983809e-01  2.1123722491683541e-01  2.1708247143365578e-01  2.1948712291426778e-01  2.1811040754920663e-01  2.1290048095600839e-01  2.0413616740743734e-01  1.9238240622590741e-01  1.7837695144754220e-01  1.6289275064939754e-01  1.4662270446412701e-01  1.3011394832976853e-01  1.1375265063237625e-01  9.7782533140933534e-02  8.2336337767447587e-02  6.7465390667747913e-02  5.3161091316737741e-02  3.9368584051422573e-02  2.5995717737434833e-02  1.2920601878777447e-02  0.0000000000000000e+00  0.0000000000000000e+00  2.0359545213018550e-02  4.0549229581799018e-02  6.0402894116429677e-02  7.9761290448340433e-02  9.8474173864715742e-02  1.1640032887077208e-01  1.3340414162039360e-01  1.4934700329418699e-01  1.6407220015496690e-01  1.7738390470066084e-01  1.8902501189901216e-01  1.9866400954720595e-01  2.0590467515090194e-01  2.1032960339020690e-01  2.1157682629403235e-01  2.0943143862094138e-01  2.0390076767124102e-01  1.9524239659517159e-01  1.8393169248267843e-01  1.7058058417306166e-01  1.5583771296091989e-01  1.4030214406182370e-01  1.2447014287712196e-01  1.0871698409256966e-01  9.3303347811174053e-02  7.8392500128942055e-02  6.4067922926115281e-02  5.0346765799584699e-02  3.7189060619830815e-02  2.4504972394069780e-02  1.2162833130523321e-02  0.0000000000000000e+00  0.0000000000000000e+00  2.0993467223310358e-02  4.1779688415200557e-02  6.2155077117510962e-02  8.1922912011860388e-02  1.0089556457862214e-01  1.1889505690144853e-01  1.3575106590797603e-01  1.5129542421215239e-01  1.6535259176122336e-01  1.7772698045091989e-01  1.8819065899234724e-01  1.9647819988101953e-01  2.0229726058261946e-01  2.0536121069926946e-01  2.0544236845901756e-01  2.0243346960887426e-01  1.9639683716499881e-01  1.8758153422521129e-01  1.7639993962081049e-01  1.6337118578462229e-01  1.4905077720069781e-01  1.3396742672685585e-01  1.1858047932017535e-01  1.0326022621099498e-01  8.8285193509431412e-02  7.3847817684274925e-02  6.0061703541203063e-02  4.6967217184053847e-02  3.4535385947737307e-02  2.2672131738392744e-02  1.1225721849813112e-02  0.0000000000000000e+00  0.0000000000000000e+00  2.1834618330380955e-02  4.3420911092672619e-02  6.4514561211682017e-02  8.4878870923433547e-02  1.0428754944884853e-01  1.2252619011529006e-01  1.3939190722214800e-01  1.5469067867812064e-01  1.6823233768096790e-01  1.7982411879226212e-01  1.8926525662925708e-01  1.9634689651378257e-01  2.0086231993441347e-01  2.0263072355739425e-01  2.0153290190089740e-01  1.9755065492444973e-01  1.9079709559062474e-01  1.8152579145072759e-01  1.7011353597037809e-01  1.5702125562725511e-01  1.4274487510183068e-01  1.2776929062057596e-01  1.1253425306144955e-01  9.7414329872137759e-02  8.2709890592680621e-02  6.8644017329758583e-02  5.5360980844536549e-02  4.2924057699659290e-02  3.1312845795545247e-02  2.0422367713160999e-02  1.0067902861188723e-02  0.0000000000000000e+00  0.0000000000000000e+00  2.2924086863653232e-02  4.5554743385119008e-02  6.7603264029046484e-02